LAMMPS (10 Mar 2016)
  using 1 OpenMP thread(s) per MPI task
Lattice spacing in x,y,z = 5.431 5.431 5.431
Created orthogonal box = (0 0 0) to (434.48 434.48 217.24)
  8 by 6 by 4 MPI processor grid
Created 2048000 atoms
Neighbor list info ...
  1 neighbor list requests
  update every 1 steps, delay 5 steps, check yes
  max neighbors/atom: 2000, page size: 100000
  master list distance cutoff = 4.2
  ghost atom cutoff = 4.2
  binsize = 2.1, bins = 207 207 104
Setting up Verlet run ...
  Unit style  : metal
  Current step: 0
  Time step   : 0.001
Memory usage per processor = 4.59544 Mbytes
Step Temp E_pair E_mol TotEng Press 
       0         1000   -9483083.9            0   -9218359.3    7019.6555 
     100    428.48834   -9331639.8            0   -9218208.3   -14378.096 
     200    543.53666   -9362087.4            0   -9218199.8   -1842.1787 
     300    493.27932   -9348765.9            0   -9218182.7    -3966.157 
     400    496.78273   -9349689.4            0   -9218178.8   -2856.9875 
     500    483.51447   -9346174.8            0   -9218176.6   -3004.9821 
     600    469.35993   -9342427.7            0   -9218176.6   -4805.7871 
     700    498.17915   -9350059.4            0   -9218179.1   -2261.5999 
     800    486.44957   -9346954.3            0   -9218179.1   -3722.4085 
     900    490.99397   -9348157.4            0   -9218179.2   -2992.1107 
    1000    480.82674   -9345465.4            0   -9218178.7   -3904.1348 
    1100    489.58418   -9347784.2            0   -9218179.2   -3212.3634 
    1200    490.13172   -9347929.3            0   -9218179.3   -3105.1025 
    1300    486.95075   -9347087.1            0   -9218179.2    -3489.319 
    1400    487.16231   -9347143.2            0   -9218179.3   -3282.0927 
    1500    486.79212     -9347045            0   -9218179.2    -3449.527 
    1600    488.82476   -9347583.1            0   -9218179.1   -3140.2689 
    1700    487.97052   -9347357.1            0   -9218179.3   -3302.1352 
    1800    486.20141   -9346888.7            0   -9218179.2   -3392.4267 
    1900    488.77517   -9347570.2            0   -9218179.3   -3152.5798 
    2000    486.10226   -9346862.4            0   -9218179.1   -3409.5531 
Loop time of 98.3111 on 192 procs for 2000 steps with 2048000 atoms

Performance: 1.758 ns/day, 13.654 hours/ns, 20.344 timesteps/s
99.6% CPU use with 192 MPI tasks x 1 OpenMP threads

MPI task timing breakdown:
Section |  min time  |  avg time  |  max time  |%varavg| %total
---------------------------------------------------------------
Pair    | 88.237     | 89.408     | 95.744     |   7.4 | 90.94
Neigh   | 1.0244     | 1.0377     | 1.0484     |   0.6 |  1.06
Comm    | 0.71231    | 3.2996     | 7.9276     |  87.3 |  3.36
Output  | 0.003454   | 0.049991   | 0.069735   |   8.6 |  0.05
Modify  | 0.29991    | 0.31105    | 0.32269    |   1.0 |  0.32
Other   |            | 4.204      |            |       |  4.28

Nlocal:    10666.7 ave 10776 max 10529 min
Histogram: 2 8 24 22 17 25 34 34 17 9
Nghost:    5470.18 ave 5551 max 5364 min
Histogram: 4 19 20 16 7 17 30 45 26 8
Neighs:    0 ave 0 max 0 min
Histogram: 192 0 0 0 0 0 0 0 0 0
FullNghs:  175843 ave 177678 max 173397 min
Histogram: 1 8 17 29 18 27 32 28 18 14

Total # of neighbors = 33761910
Ave neighs/atom = 16.4853
Neighbor list builds = 76
Dangerous builds = 0
Total wall time: 0:01:38
