LAMMPS (10 Mar 2016)
  using 1 OpenMP thread(s) per MPI task
Lattice spacing in x,y,z = 5.431 5.431 5.431
Created orthogonal box = (0 0 0) to (434.48 434.48 217.24)
  4 by 8 by 4 MPI processor grid
Created 2048000 atoms
Neighbor list info ...
  1 neighbor list requests
  update every 1 steps, delay 5 steps, check yes
  max neighbors/atom: 2000, page size: 100000
  master list distance cutoff = 4.2
  ghost atom cutoff = 4.2
  binsize = 2.1, bins = 207 207 104
Setting up Verlet run ...
  Unit style  : metal
  Current step: 0
  Time step   : 0.001
Memory usage per processor = 4.76273 Mbytes
Step Temp E_pair E_mol TotEng Press 
       0         1000   -9483083.9            0   -9218359.3    7019.6555 
     100    428.48834   -9331639.8            0   -9218208.3   -14378.096 
     200    543.53666   -9362087.4            0   -9218199.8   -1842.1787 
     300    493.27932   -9348765.9            0   -9218182.7    -3966.157 
     400    496.78273   -9349689.4            0   -9218178.8   -2856.9875 
     500    483.51447   -9346174.8            0   -9218176.6   -3004.9821 
     600    469.35993   -9342427.7            0   -9218176.6   -4805.7871 
     700    498.17915   -9350059.4            0   -9218179.1   -2261.5999 
     800    486.44957   -9346954.3            0   -9218179.1   -3722.4085 
     900    490.99397   -9348157.4            0   -9218179.2   -2992.1107 
    1000    480.82674   -9345465.4            0   -9218178.7   -3904.1348 
    1100    489.58418   -9347784.2            0   -9218179.2   -3212.3634 
    1200    490.13172   -9347929.3            0   -9218179.3   -3105.1025 
    1300    486.95075   -9347087.1            0   -9218179.2    -3489.319 
    1400    487.16231   -9347143.2            0   -9218179.3   -3282.0927 
    1500    486.79212     -9347045            0   -9218179.2    -3449.527 
    1600    488.82476   -9347583.1            0   -9218179.1   -3140.2689 
    1700    487.97052   -9347357.1            0   -9218179.3   -3302.1352 
    1800    486.20141   -9346888.7            0   -9218179.2   -3392.4267 
    1900    488.77517   -9347570.2            0   -9218179.3   -3152.5798 
    2000    486.10226   -9346862.4            0   -9218179.1   -3409.5531 
Loop time of 207.721 on 128 procs for 2000 steps with 2048000 atoms

Performance: 0.832 ns/day, 28.850 hours/ns, 9.628 timesteps/s
99.6% CPU use with 128 MPI tasks x 1 OpenMP threads

MPI task timing breakdown:
Section |  min time  |  avg time  |  max time  |%varavg| %total
---------------------------------------------------------------
Pair    | 115.49     | 133.28     | 203.71     |  87.7 | 64.16
Neigh   | 1.3555     | 1.5542     | 2.0189     |   7.0 |  0.75
Comm    | 0.9341     | 37.625     | 89.806     | 417.2 | 18.11
Output  | 0.0046899  | 0.43035    | 0.76349    |  45.2 |  0.21
Modify  | 0.40644    | 0.48726    | 0.68796    |   5.0 |  0.23
Other   |            | 34.35      |            |       | 16.54

Nlocal:    16000 ave 16078 max 15915 min
Histogram: 1 2 17 14 21 27 21 18 6 1
Nghost:    7461.12 ave 7536 max 7383 min
Histogram: 1 4 9 21 32 22 21 9 5 4
Neighs:    0 ave 0 max 0 min
Histogram: 128 0 0 0 0 0 0 0 0 0
FullNghs:  263765 ave 265388 max 262305 min
Histogram: 7 12 8 16 24 22 19 15 4 1

Total # of neighbors = 33761910
Ave neighs/atom = 16.4853
Neighbor list builds = 76
Dangerous builds = 0
Total wall time: 0:03:27
