LAMMPS (10 Mar 2016)
  using 1 OpenMP thread(s) per MPI task
Intel Package: Affinitizing MPI Tasks to 2 Cores Each
Lattice spacing in x,y,z = 5.431 5.431 5.431
Created orthogonal box = (0 0 0) to (434.48 434.48 217.24)
  4 by 4 by 2 MPI processor grid
Created 2048000 atoms
----------------------------------------------------------
Using Intel Package without Coprocessor.
Precision: single
----------------------------------------------------------
Neighbor list info ...
  1 neighbor list requests
  update every 1 steps, delay 5 steps, check yes
  max neighbors/atom: 2000, page size: 100000
  master list distance cutoff = 4.2
  ghost atom cutoff = 4.2
  binsize = 2.1, bins = 207 207 104
Setting up Verlet run ...
  Unit style  : metal
  Current step: 0
  Time step   : 0.001
Memory usage per processor = 284.327 Mbytes
Step Temp E_pair E_mol TotEng Press 
       0         1000   -9484672.3            0   -9219947.7    7023.3904 
     100    428.48394   -9331640.8            0   -9218210.6   -14377.729 
     200    543.53544   -9362085.8            0   -9218198.5   -1842.2095 
     300    493.28001   -9348762.7            0   -9218179.3   -3965.7779 
     400    496.78521   -9349691.2            0   -9218179.9   -2857.0492 
     500    483.52016   -9346175.1            0   -9218175.4   -3005.1195 
     600    469.36546   -9342426.1            0   -9218173.5   -4806.0693 
     700    498.18765   -9350057.5            0     -9218175   -2261.9426 
     800    486.45956   -9346949.2            0   -9218171.4   -3722.7492 
     900    491.00802   -9348149.7            0   -9218167.8   -2992.3411 
    1000    480.84068     -9345462            0   -9218171.6   -3904.4113 
    1100    489.60091   -9347777.4            0     -9218168   -3212.9528 
    1200    490.14813     -9347931            0   -9218176.7   -3106.0366 
    1300    486.96981   -9347077.5            0   -9218164.6   -3489.6047 
    1400     487.1822   -9347135.5            0   -9218166.4   -3282.7831 
    1500    486.81307   -9347033.8            0   -9218162.4   -3450.3301 
    1600    488.85109   -9347575.2            0   -9218164.3   -3140.5016 
    1700    487.99444   -9347353.5            0   -9218169.4   -3303.0722 
    1800    486.23087   -9346880.4            0   -9218163.1   -3393.0558 
    1900    488.80634   -9347558.6            0   -9218159.5   -3152.9983 
    2000    486.13439   -9346849.8            0   -9218158.1    -3410.041 
Loop time of 240.166 on 32 procs for 2000 steps with 2048000 atoms

Performance: 0.720 ns/day, 33.356 hours/ns, 8.328 timesteps/s
99.8% CPU use with 32 MPI tasks x 1 OpenMP threads

MPI task timing breakdown:
Section |  min time  |  avg time  |  max time  |%varavg| %total
---------------------------------------------------------------
Pair    | 220.32     | 221.42     | 223.38     |   4.5 | 92.19
Neigh   | 6.7022     | 6.7411     | 6.7771     |   0.7 |  2.81
Comm    | 3.4828     | 5.203      | 6.8139     |  34.4 |  2.17
Output  | 0.011709   | 0.016754   | 0.027388   |   3.8 |  0.01
Modify  | 1.7661     | 3.3993     | 4.1463     |  30.4 |  1.42
Other   |            | 3.386      |            |       |  1.41

Nlocal:    64000 ave 64129 max 63884 min
Histogram: 1 4 6 4 2 4 3 5 0 3
Nghost:    17069.8 ave 17171 max 16947 min
Histogram: 2 0 1 3 6 8 4 5 1 2
Neighs:    0 ave 0 max 0 min
Histogram: 32 0 0 0 0 0 0 0 0 0
FullNghs:  1.05506e+06 ave 1.05772e+06 max 1.05234e+06 min
Histogram: 1 3 3 7 5 1 3 4 2 3

Total # of neighbors = 33761872
Ave neighs/atom = 16.4853
Neighbor list builds = 76
Dangerous builds = 0
Total wall time: 0:04:03
