LAMMPS (10 Mar 2016)
  using 1 OpenMP thread(s) per MPI task
Intel Package: Affinitizing MPI Tasks to 2 Cores Each
Lattice spacing in x,y,z = 5.431 5.431 5.431
Created orthogonal box = (0 0 0) to (434.48 434.48 217.24)
  4 by 4 by 4 MPI processor grid
Created 2048000 atoms
----------------------------------------------------------
Using Intel Package without Coprocessor.
Precision: single
----------------------------------------------------------
Neighbor list info ...
  1 neighbor list requests
  update every 1 steps, delay 5 steps, check yes
  max neighbors/atom: 2000, page size: 100000
  master list distance cutoff = 4.2
  ghost atom cutoff = 4.2
  binsize = 2.1, bins = 207 207 104
Setting up Verlet run ...
  Unit style  : metal
  Current step: 0
  Time step   : 0.001
Memory usage per processor = 142.633 Mbytes
Step Temp E_pair E_mol TotEng Press 
       0         1000   -9483687.5            0   -9218962.9    7025.0234 
     100    428.48146   -9331639.5            0   -9218209.9   -14378.567 
     200    543.53494   -9362086.8            0   -9218199.7   -1841.8751 
     300    493.28157   -9348762.5            0   -9218178.7   -3966.2356 
     400    496.78808   -9349687.3            0   -9218175.3   -2857.2711 
     500    483.52221   -9346168.7            0   -9218168.4   -3005.1685 
     600    469.37179   -9342424.8            0   -9218170.5    -4805.812 
     700    498.19503   -9350055.5            0     -9218171    -2262.274 
     800    486.46757   -9346947.8            0   -9218167.8   -3722.8804 
     900    491.01418   -9348151.8            0   -9218168.2   -2992.4759 
    1000    480.84919   -9345458.7            0   -9218166.1   -3904.7004 
    1100     489.6134   -9347778.5            0   -9218165.7   -3212.6923 
    1200    490.16347   -9347920.1            0   -9218161.8   -3105.7188 
    1300    486.98628   -9347078.8            0   -9218161.5   -3490.4152 
    1400    487.19781   -9347134.6            0   -9218161.3   -3282.6542 
    1500    486.83579   -9347032.1            0   -9218154.7   -3450.1004 
    1600    488.86871   -9347569.7            0   -9218154.1   -3140.9356 
    1700    488.01505   -9347343.5            0   -9218153.9   -3303.1562 
    1800    486.24006   -9346873.7            0   -9218153.9    -3393.033 
    1900    488.82256   -9347555.9            0   -9218152.5   -3153.0314 
    2000     486.1606   -9346848.1            0   -9218149.4   -3410.1167 
Loop time of 119.454 on 64 procs for 2000 steps with 2048000 atoms

Performance: 1.447 ns/day, 16.591 hours/ns, 16.743 timesteps/s
99.8% CPU use with 64 MPI tasks x 1 OpenMP threads

MPI task timing breakdown:
Section |  min time  |  avg time  |  max time  |%varavg| %total
---------------------------------------------------------------
Pair    | 109.78     | 110.72     | 111.7      |   3.9 | 92.69
Neigh   | 3.319      | 3.3501     | 3.3695     |   0.5 |  2.80
Comm    | 1.9407     | 2.9145     | 3.896      |  24.2 |  2.44
Output  | 0.0062602  | 0.010313   | 0.017195   |   2.8 |  0.01
Modify  | 0.8462     | 1.0195     | 1.1481     |   6.0 |  0.85
Other   |            | 1.437      |            |       |  1.20

Nlocal:    32000 ave 32086 max 31921 min
Histogram: 7 4 8 7 8 7 9 4 6 4
Nghost:    11610.4 ave 11677 max 11512 min
Histogram: 1 0 3 5 13 10 12 8 6 6
Neighs:    0 ave 0 max 0 min
Histogram: 64 0 0 0 0 0 0 0 0 0
FullNghs:  527524 ave 529356 max 525563 min
Histogram: 4 4 6 8 9 7 8 12 1 5

Total # of neighbors = 33761545
Ave neighs/atom = 16.4851
Neighbor list builds = 76
Dangerous builds = 0
Total wall time: 0:02:02
