LAMMPS (10 Mar 2016)
  using 1 OpenMP thread(s) per MPI task
Intel Package: Affinitizing MPI Tasks to 2 Cores Each
Lattice spacing in x,y,z = 5.431 5.431 5.431
Created orthogonal box = (0 0 0) to (434.48 434.48 217.24)
  2 by 4 by 2 MPI processor grid
Created 2048000 atoms
----------------------------------------------------------
Using Intel Package without Coprocessor.
Precision: single
----------------------------------------------------------
Neighbor list info ...
  1 neighbor list requests
  update every 1 steps, delay 5 steps, check yes
  max neighbors/atom: 2000, page size: 100000
  master list distance cutoff = 4.2
  ghost atom cutoff = 4.2
  binsize = 2.1, bins = 207 207 104
Setting up Verlet run ...
  Unit style  : metal
  Current step: 0
  Time step   : 0.001
Memory usage per processor = 564.699 Mbytes
Step Temp E_pair E_mol TotEng Press 
       0         1000     -9474860            0   -9210135.4    7017.7124 
     100    428.48587   -9331635.7            0   -9218204.9   -14377.127 
     200    543.53591   -9362085.3            0     -9218198   -1842.4208 
     300    493.28011   -9348756.9            0   -9218173.5   -3965.7493 
     400    496.78511   -9349679.4            0   -9218168.2   -2857.7191 
     500    483.51906     -9346172            0   -9218172.6   -3004.9786 
     600    469.36368   -9342426.8            0   -9218174.7   -4805.8004 
     700    498.18531   -9350064.7            0   -9218182.8   -2261.1597 
     800     486.4573   -9346955.7            0   -9218178.4    -3722.377 
     900    491.00423   -9348150.3            0   -9218169.4   -2992.4037 
    1000    480.83832   -9345459.7            0   -9218169.9   -3904.6383 
    1100    489.59413   -9347791.3            0   -9218183.7   -3213.4152 
    1200     490.1435   -9347926.2            0   -9218173.1    -3105.018 
    1300     486.9636   -9347075.7            0   -9218164.4   -3489.4444 
    1400    487.17664     -9347133            0   -9218165.3   -3282.0527 
    1500    486.81016   -9347017.8            0   -9218147.2   -3450.0688 
    1600    488.84201     -9347573            0   -9218164.5   -3140.8009 
    1700    487.98569   -9347352.1            0   -9218170.3   -3302.5256 
    1800    486.21869   -9346884.4            0   -9218170.3   -3391.6676 
    1900    488.79638   -9347560.2            0   -9218163.8   -3153.5042 
    2000    486.12239   -9346849.6            0     -9218161   -3410.1913 
Loop time of 477.873 on 16 procs for 2000 steps with 2048000 atoms

Performance: 0.362 ns/day, 66.371 hours/ns, 4.185 timesteps/s
99.8% CPU use with 16 MPI tasks x 1 OpenMP threads

MPI task timing breakdown:
Section |  min time  |  avg time  |  max time  |%varavg| %total
---------------------------------------------------------------
Pair    | 437.57     | 440.75     | 445.28     |   9.3 | 92.23
Neigh   | 13.311     | 13.393     | 13.431     |   0.9 |  2.80
Comm    | 5.7194     | 10.036     | 12.739     |  58.4 |  2.10
Output  | 0.027648   | 0.043497   | 0.080535   |   9.8 |  0.01
Modify  | 6.6896     | 7.8241     | 8.4619     |  19.6 |  1.64
Other   |            | 5.826      |            |       |  1.22

Nlocal:    128000 ave 128150 max 127837 min
Histogram: 1 1 2 2 1 2 2 3 1 1
Nghost:    27983.6 ave 28144 max 27852 min
Histogram: 1 1 1 2 5 3 1 1 0 1
Neighs:    0 ave 0 max 0 min
Histogram: 16 0 0 0 0 0 0 0 0 0
FullNghs:  2.11012e+06 ave 2.11329e+06 max 2.10664e+06 min
Histogram: 3 0 1 2 0 1 5 1 1 2

Total # of neighbors = 33761868
Ave neighs/atom = 16.4853
Neighbor list builds = 76
Dangerous builds = 0
Total wall time: 0:08:01
