LAMMPS (10 Mar 2016)
  using 1 OpenMP thread(s) per MPI task
Intel Package: Affinitizing MPI Tasks to 2 Cores Each
Lattice spacing in x,y,z = 5.431 5.431 5.431
Created orthogonal box = (0 0 0) to (434.48 434.48 217.24)
  4 by 8 by 4 MPI processor grid
Created 2048000 atoms
----------------------------------------------------------
Using Intel Package without Coprocessor.
Precision: mixed
----------------------------------------------------------
Neighbor list info ...
  1 neighbor list requests
  update every 1 steps, delay 5 steps, check yes
  max neighbors/atom: 2000, page size: 100000
  master list distance cutoff = 4.2
  ghost atom cutoff = 4.2
  binsize = 2.1, bins = 207 207 104
Setting up Verlet run ...
  Unit style  : metal
  Current step: 0
  Time step   : 0.001
Memory usage per processor = 72.7002 Mbytes
Step Temp E_pair E_mol TotEng Press 
       0         1000   -9483082.6            0     -9218358    7019.7709 
     100    428.47656   -9331638.5            0   -9218210.2    -14378.22 
     200    543.53316   -9362085.5            0   -9218198.9   -1842.2326 
     300    493.28399     -9348764            0   -9218179.6   -3966.5467 
     400    496.79295   -9349686.6            0   -9218173.2   -2857.4507 
     500    483.53021   -9346170.5            0   -9218168.1   -3005.7355 
     600    469.37872   -9342421.1            0     -9218165   -4806.5589 
     700    498.20472   -9350051.8            0   -9218164.7   -2262.2829 
     800    486.47976     -9346945            0   -9218161.8   -3723.3836 
     900    491.02859   -9348146.9            0   -9218159.5   -2993.0643 
    1000    480.86645   -9345453.3            0   -9218156.1   -3905.4033 
    1100     489.6316     -9347773            0   -9218155.4   -3213.2586 
    1200    490.17752   -9347915.2            0   -9218153.1   -3106.4083 
    1300    487.00216     -9347072            0   -9218150.5   -3490.4998 
    1400    487.21391   -9347125.4            0   -9218147.8   -3283.2211 
    1500    486.85013   -9347026.2            0     -9218145   -3450.7934 
    1600    488.88665   -9347562.8            0   -9218142.5   -3141.6781 
    1700    488.04124   -9347337.3            0   -9218140.8   -3303.5553 
    1800    486.27283   -9346866.3            0   -9218137.9   -3393.8895 
    1900    488.85484     -9347547            0   -9218135.1   -3154.1165 
    2000    486.18633   -9346837.8            0   -9218132.3   -3410.9859 
Loop time of 103.675 on 128 procs for 2000 steps with 2048000 atoms

Performance: 1.667 ns/day, 14.399 hours/ns, 19.291 timesteps/s
99.6% CPU use with 128 MPI tasks x 1 OpenMP threads

MPI task timing breakdown:
Section |  min time  |  avg time  |  max time  |%varavg| %total
---------------------------------------------------------------
Pair    | 50.153     | 57.836     | 99.438     |  74.8 | 55.79
Neigh   | 1.44       | 1.651      | 2.1865     |   7.8 |  1.59
Comm    | 1.2124     | 20.909     | 51.184     | 343.1 | 20.17
Output  | 0.004658   | 0.28671    | 0.44875    |  37.1 |  0.28
Modify  | 0.26002    | 0.32604    | 0.43001    |   6.4 |  0.31
Other   |            | 22.67      |            |       | 21.86

Nlocal:    16000 ave 16079 max 15912 min
Histogram: 1 1 17 12 25 24 23 19 5 1
Nghost:    7460.77 ave 7530 max 7379 min
Histogram: 1 2 8 18 22 32 22 12 5 6
Neighs:    0 ave 0 max 0 min
Histogram: 128 0 0 0 0 0 0 0 0 0
FullNghs:  263763 ave 265391 max 262231 min
Histogram: 7 9 9 16 24 22 21 14 5 1

Total # of neighbors = 33761630
Ave neighs/atom = 16.4852
Neighbor list builds = 76
Dangerous builds = 0
Total wall time: 0:01:46
