LAMMPS (10 Mar 2016)
  using 1 OpenMP thread(s) per MPI task
