LAMMPS (10 Mar 2016)
  using 1 OpenMP thread(s) per MPI task
Intel Package: Affinitizing MPI Tasks to 2 Cores Each
Intel Package: Affinitizing MPI Tasks to 2 Cores Each
Lattice spacing in x,y,z = 5.431 5.431 5.431
Created orthogonal box = (0 0 0) to (434.48 434.48 217.24)
  2 by 4 by 2 MPI processor grid
Created 2048000 atoms
----------------------------------------------------------
Using Intel Coprocessor with 4 threads per core, 29 threads per task
Precision: double
----------------------------------------------------------
Neighbor list info ...
  1 neighbor list requests
  update every 1 steps, delay 5 steps, check yes
  max neighbors/atom: 2000, page size: 100000
  master list distance cutoff = 4.2
  ghost atom cutoff = 4.2
  binsize = 2.1, bins = 207 207 104
Setting up Verlet run ...
  Unit style  : metal
  Current step: 0
  Time step   : 0.001
Memory usage per processor = 729.28 Mbytes
Step Temp E_pair E_mol TotEng Press 
       0         1000   -9483083.9            0   -9218359.3    7019.6555 
     100    428.48594   -9331639.5            0   -9218208.7   -14378.153 
     200    543.53387   -9362087.1            0   -9218200.3   -1842.1833 
     300    493.27787   -9348765.8            0     -9218183   -3966.2174 
     400    496.78181   -9349689.4            0   -9218179.1   -2857.0127 
     500    483.51307   -9346174.6            0   -9218176.8   -3005.0349 
     600    469.35893   -9342427.4            0   -9218176.6    -4805.783 
     700    498.17836   -9350059.2            0   -9218179.1   -2261.6554 
     800    486.44788   -9346953.7            0     -9218179   -3722.4488 
     900    490.99479   -9348157.5            0     -9218179   -2992.1294 
    1000    480.82726   -9345465.3            0   -9218178.5   -3904.1164 
    1100    489.58445   -9347783.9            0   -9218178.8   -3212.3877 
    1200    490.13265   -9347929.2            0     -9218179    -3105.118 
    1300    486.95038   -9347086.5            0   -9218178.8   -3489.2982 
    1400    487.16344   -9347142.9            0   -9218178.7   -3281.9741 
    1500    486.78889   -9347043.6            0   -9218178.6   -3449.5478 
    1600    488.82638   -9347582.9            0   -9218178.5   -3140.2673 
    1700     487.9707   -9347356.6            0   -9218178.7   -3302.1178 
    1800    486.20211   -9346888.2            0   -9218178.5    -3392.374 
    1900    488.77419   -9347569.1            0   -9218178.5   -3152.4967 
    2000    486.09983   -9346860.9            0   -9218178.3   -3409.4949 
Loop time of 303.817 on 16 procs for 2000 steps with 2048000 atoms

Performance: 0.569 ns/day, 42.197 hours/ns, 6.583 timesteps/s
100.5% CPU use with 16 MPI tasks x 1 OpenMP threads

MPI task timing breakdown:
Section |  min time  |  avg time  |  max time  |%varavg| %total
---------------------------------------------------------------
Pair    | 191.14     | 197.65     | 276.31     | 144.6 | 65.05
Neigh   | 6.9847     | 7.2632     | 9.3065     |  19.8 |  2.39
Comm    | 5.8415     | 69.531     | 93.477     | 405.8 | 22.89
Output  | 0.026213   | 0.24218    | 0.88575    |  75.4 |  0.08
Modify  | 2.652      | 5.3639     | 7.5023     |  68.5 |  1.77
Other   |            | 23.77      |            |       |  7.82

Nlocal:    128000 ave 128155 max 127838 min
Histogram: 2 0 2 2 1 2 3 2 0 2
Nghost:    27983.9 ave 28127 max 27855 min
Histogram: 1 2 0 3 2 5 1 1 0 1
Neighs:    0 ave 0 max 0 min
Histogram: 16 0 0 0 0 0 0 0 0 0
FullNghs:  949525 ave 950971 max 948037 min
Histogram: 1 2 1 1 2 3 2 2 0 2

Total # of neighbors = 15192399
Ave neighs/atom = 7.41816
Neighbor list builds = 76
Dangerous builds = 0

------------------------------------------------
               Offload Timing Data
------------------------------------------------
  Data Pack/Cast Seconds    10.418302
  Host Neighbor Seconds     6.729676
  Host Pair Seconds         186.438988
  Offload Neighbor Seconds  3.201797
  Offload Pair Seconds      116.387817
  Offload Wait Seconds      0.075463
  Offload Latency Seconds   1.056057
  Offload Neighbor Balance  0.550000
  Offload Pair Balance      0.550000
  Offload Ghost Atoms       Yes
------------------------------------------------
Total wall time: 0:05:26
