LAMMPS (10 Mar 2016)
  using 1 OpenMP thread(s) per MPI task
Intel Package: Affinitizing MPI Tasks to 2 Cores Each
Intel Package: Affinitizing MPI Tasks to 2 Cores Each
Lattice spacing in x,y,z = 5.431 5.431 5.431
Created orthogonal box = (0 0 0) to (434.48 434.48 217.24)
  4 by 4 by 2 MPI processor grid
Created 2048000 atoms
----------------------------------------------------------
Using Intel Coprocessor with 4 threads per core, 29 threads per task
Precision: single
----------------------------------------------------------
Neighbor list info ...
  1 neighbor list requests
  update every 1 steps, delay 5 steps, check yes
  max neighbors/atom: 2000, page size: 100000
  master list distance cutoff = 4.2
  ghost atom cutoff = 4.2
  binsize = 2.1, bins = 207 207 104
Setting up Verlet run ...
  Unit style  : metal
  Current step: 0
  Time step   : 0.001
Memory usage per processor = 325.903 Mbytes
Step Temp E_pair E_mol TotEng Press 
       0         1000   -9483121.8            0   -9218397.1    7019.9671 
     100    428.48435   -9331639.6            0   -9218209.3   -14378.217 
     200     543.5327   -9362086.8            0   -9218200.3    -1842.145 
     300    493.27744   -9348766.5            0   -9218183.8   -3966.2388 
     400    496.78139   -9349689.6            0   -9218179.4    -2857.013 
     500    483.51261   -9346175.2            0   -9218177.5   -3005.0846 
     600    469.35704   -9342427.5            0   -9218177.1   -4805.7066 
     700    498.17877   -9350059.5            0   -9218179.3   -2261.5941 
     800    486.44793   -9346953.9            0   -9218179.1    -3722.449 
     900    490.99296   -9348157.5            0   -9218179.5   -2992.1029 
    1000    480.82656   -9345464.9            0   -9218178.2    -3904.236 
    1100    489.58523   -9347784.4            0   -9218179.1   -3212.3466 
    1200    490.13194   -9347929.6            0   -9218179.6   -3105.1793 
    1300    486.95224   -9347086.8            0   -9218178.5   -3489.2799 
    1400    487.16562   -9347143.6            0   -9218178.8   -3281.9265 
    1500    486.79217   -9347044.3            0   -9218178.4   -3449.5226 
    1600     488.8267   -9347583.3            0   -9218178.8   -3140.2712 
    1700    487.97318   -9347356.9            0   -9218178.4   -3302.0511 
    1800    486.20544   -9346888.7            0   -9218178.1    -3392.287 
    1900    488.77597   -9347568.9            0   -9218177.9   -3152.6007 
    2000     486.0954   -9346858.7            0   -9218177.2   -3409.4574 
Loop time of 75.4316 on 32 procs for 2000 steps with 2048000 atoms

Performance: 2.291 ns/day, 10.477 hours/ns, 26.514 timesteps/s
103.9% CPU use with 32 MPI tasks x 1 OpenMP threads

MPI task timing breakdown:
Section |  min time  |  avg time  |  max time  |%varavg| %total
---------------------------------------------------------------
Pair    | 46.612     | 50.867     | 58.013     |  31.1 | 67.44
Neigh   | 1.4663     | 1.6156     | 1.887      |   6.3 |  2.14
Comm    | 7.4527     | 14.664     | 20.665     |  68.1 | 19.44
Output  | 0.020927   | 0.041328   | 0.08138    |   7.1 |  0.05
Modify  | 1.7428     | 2.299      | 2.5406     |  16.1 |  3.05
Other   |            | 5.944      |            |       |  7.88

Nlocal:    64000 ave 64134 max 63878 min
Histogram: 1 3 7 4 2 4 3 5 0 3
Nghost:    17070.2 ave 17155 max 16943 min
Histogram: 1 1 1 2 2 10 4 4 4 3
Neighs:    0 ave 0 max 0 min
Histogram: 32 0 0 0 0 0 0 0 0 0
FullNghs:  204801 ave 259182 max 123948 min
Histogram: 2 0 0 0 2 10 14 2 0 2

Total # of neighbors = 6553645
Ave neighs/atom = 3.20002
Neighbor list builds = 76
Dangerous builds = 0

------------------------------------------------
               Offload Timing Data
------------------------------------------------
  Data Pack/Cast Seconds    3.208284
  Host Neighbor Seconds     1.412404
  Host Pair Seconds         45.477657
  Offload Neighbor Seconds  1.870171
  Offload Pair Seconds      39.224655
  Offload Wait Seconds      1.674502
  Offload Latency Seconds   0.613689
  Offload Neighbor Balance  0.805798
  Offload Pair Balance      0.805858
  Offload Ghost Atoms       Yes
------------------------------------------------
Total wall time: 0:01:27
