LAMMPS (10 Mar 2016)
  using 1 OpenMP thread(s) per MPI task
Intel Package: Affinitizing MPI Tasks to 2 Cores Each
Intel Package: Affinitizing MPI Tasks to 2 Cores Each
Lattice spacing in x,y,z = 5.431 5.431 5.431
Created orthogonal box = (0 0 0) to (434.48 434.48 217.24)
  4 by 8 by 4 MPI processor grid
Created 2048000 atoms
----------------------------------------------------------
Using Intel Coprocessor with 4 threads per core, 29 threads per task
Precision: mixed
----------------------------------------------------------
Neighbor list info ...
  1 neighbor list requests
  update every 1 steps, delay 5 steps, check yes
  max neighbors/atom: 2000, page size: 100000
  master list distance cutoff = 4.2
  ghost atom cutoff = 4.2
  binsize = 2.1, bins = 207 207 104
Setting up Verlet run ...
  Unit style  : metal
  Current step: 0
  Time step   : 0.001
Memory usage per processor = 96.2202 Mbytes
Step Temp E_pair E_mol TotEng Press 
       0         1000   -9483083.9            0   -9218359.3    7019.6443 
     100    428.47678   -9331638.6            0   -9218210.2   -14378.293 
     200    543.52838     -9362087            0   -9218201.6   -1842.1758 
     300    493.27626   -9348766.4            0   -9218184.1   -3966.4066 
     400    496.78074   -9349690.1            0     -9218180    -2857.089 
     500    483.51111   -9346174.9            0   -9218177.6   -3005.2789 
     600    469.35596   -9342427.3            0   -9218177.2   -4805.8299 
     700    498.17517   -9350058.7            0   -9218179.5   -2261.5753 
     800    486.44814     -9346954            0   -9218179.2    -3722.628 
     900    490.99104   -9348156.3            0   -9218178.9     -2992.13 
    1000    480.82572   -9345464.6            0   -9218178.2    -3904.197 
    1100    489.58473   -9347783.8            0   -9218178.7   -3212.3293 
    1200    490.13008   -9347928.1            0   -9218178.6   -3105.0548 
    1300    486.94482   -9347084.5            0   -9218178.2   -3489.2969 
    1400    487.16256     -9347142            0   -9218178.1   -3281.7831 
    1500    486.79397   -9347044.3            0   -9218177.9   -3449.7113 
    1600    488.82776   -9347582.4            0   -9218177.6   -3140.4248 
    1700    487.98093   -9347358.4            0   -9218177.8   -3302.1943 
    1800    486.20318   -9346887.5            0   -9218177.5   -3392.5127 
    1900    488.76247   -9347564.8            0   -9218177.3   -3152.2376 
    2000    486.09102   -9346857.3            0     -9218177   -3409.4524 
Loop time of 45.1158 on 128 procs for 2000 steps with 2048000 atoms

Performance: 3.830 ns/day, 6.266 hours/ns, 44.330 timesteps/s
103.5% CPU use with 128 MPI tasks x 1 OpenMP threads

MPI task timing breakdown:
Section |  min time  |  avg time  |  max time  |%varavg| %total
---------------------------------------------------------------
Pair    | 18.868     | 20.219     | 21.082     |   7.9 | 44.82
Neigh   | 0.060637   | 0.092656   | 0.17281    |   7.3 |  0.21
Comm    | 14.5       | 15.975     | 17.86      |  17.6 | 35.41
Output  | 0.040567   | 0.073429   | 0.11672    |   5.6 |  0.16
Modify  | 0.27028    | 0.31363    | 0.40431    |   4.6 |  0.70
Other   |            | 8.442      |            |       | 18.71

Nlocal:    16000 ave 16079 max 15918 min
Histogram: 2 4 18 13 19 31 17 17 6 1
Nghost:    7461.12 ave 7526 max 7381 min
Histogram: 1 2 9 12 32 21 25 12 8 6
Neighs:    0 ave 0 max 0 min
Histogram: 128 0 0 0 0 0 0 0 0 0
FullNghs:  0 ave 0 max 0 min
Histogram: 128 0 0 0 0 0 0 0 0 0

Total # of neighbors = 0
Ave neighs/atom = 0
Neighbor list builds = 76
Dangerous builds = 0

------------------------------------------------
               Offload Timing Data
------------------------------------------------
  Data Pack/Cast Seconds    0.481590
  Host Neighbor Seconds     0.031713
  Host Pair Seconds         0.000000
  Offload Neighbor Seconds  0.545692
  Offload Pair Seconds      15.054453
  Offload Wait Seconds      19.453847
  Offload Latency Seconds   0.317935
  Offload Neighbor Balance  1.000000
  Offload Pair Balance      1.000000
  Offload Ghost Atoms       Yes
------------------------------------------------
Total wall time: 0:00:51
