LAMMPS (10 Mar 2016)
  using 1 OpenMP thread(s) per MPI task
Intel Package: Affinitizing MPI Tasks to 2 Cores Each
Intel Package: Affinitizing MPI Tasks to 2 Cores Each
Lattice spacing in x,y,z = 5.431 5.431 5.431
Created orthogonal box = (0 0 0) to (434.48 434.48 217.24)
  4 by 8 by 4 MPI processor grid
Created 2048000 atoms
----------------------------------------------------------
Using Intel Coprocessor with 4 threads per core, 29 threads per task
Precision: single
----------------------------------------------------------
Neighbor list info ...
  1 neighbor list requests
  update every 1 steps, delay 5 steps, check yes
  max neighbors/atom: 2000, page size: 100000
  master list distance cutoff = 4.2
  ghost atom cutoff = 4.2
  binsize = 2.1, bins = 207 207 104
Setting up Verlet run ...
  Unit style  : metal
  Current step: 0
  Time step   : 0.001
Memory usage per processor = 84.1114 Mbytes
Step Temp E_pair E_mol TotEng Press 
       0         1000   -9483083.6            0     -9218359     7019.649 
     100    428.47679   -9331638.7            0   -9218210.3   -14378.301 
     200    543.52835     -9362087            0   -9218201.6   -1842.1964 
     300     493.2763   -9348766.5            0   -9218184.1   -3966.4133 
     400     496.7807   -9349690.2            0   -9218180.1   -2857.1028 
     500    483.51113   -9346174.9            0   -9218177.6   -3005.2914 
     600    469.35602   -9342427.4            0   -9218177.3   -4805.8207 
     700     498.1752   -9350058.8            0   -9218179.6   -2261.5685 
     800    486.44802     -9346954            0   -9218179.2   -3722.6032 
     900    490.99081   -9348156.4            0     -9218179   -2992.1322 
    1000    480.82538   -9345464.5            0   -9218178.2   -3904.1759 
    1100    489.58427   -9347783.7            0   -9218178.7     -3212.33 
    1200    490.12978     -9347928            0   -9218178.6   -3105.0039 
    1300    486.94448   -9347084.5            0   -9218178.3   -3489.3126 
    1400    487.16264   -9347142.2            0   -9218178.3   -3281.7876 
    1500    486.79385   -9347044.3            0     -9218178   -3449.6703 
    1600    488.82669   -9347582.4            0   -9218177.9   -3140.4529 
    1700    487.98043   -9347358.5            0     -9218178   -3302.1825 
    1800    486.20261   -9346887.6            0   -9218177.8   -3392.5278 
    1900    488.76149   -9347564.8            0   -9218177.6   -3152.2652 
    2000    486.09101   -9346857.6            0   -9218177.3   -3409.4521 
Loop time of 43.4056 on 128 procs for 2000 steps with 2048000 atoms

Performance: 3.981 ns/day, 6.029 hours/ns, 46.077 timesteps/s
103.2% CPU use with 128 MPI tasks x 1 OpenMP threads

MPI task timing breakdown:
Section |  min time  |  avg time  |  max time  |%varavg| %total
---------------------------------------------------------------
Pair    | 15.812     | 17.323     | 18.442     |   8.8 | 39.91
Neigh   | 0.063063   | 0.088067   | 0.12804    |   4.0 |  0.20
Comm    | 16.004     | 17.486     | 18.984     |  15.9 | 40.28
Output  | 0.057051   | 0.10406    | 0.1477     |   5.4 |  0.24
Modify  | 0.26669    | 0.3039     | 0.33738    |   2.3 |  0.70
Other   |            | 8.101      |            |       | 18.66

Nlocal:    16000 ave 16079 max 15918 min
Histogram: 2 4 18 13 19 31 16 18 6 1
Nghost:    7461.06 ave 7526 max 7381 min
Histogram: 1 2 9 13 30 21 27 11 8 6
Neighs:    0 ave 0 max 0 min
Histogram: 128 0 0 0 0 0 0 0 0 0
FullNghs:  0 ave 0 max 0 min
Histogram: 128 0 0 0 0 0 0 0 0 0

Total # of neighbors = 0
Ave neighs/atom = 0
Neighbor list builds = 76
Dangerous builds = 0

------------------------------------------------
               Offload Timing Data
------------------------------------------------
  Data Pack/Cast Seconds    0.446406
  Host Neighbor Seconds     0.030894
  Host Pair Seconds         0.000000
  Offload Neighbor Seconds  0.545611
  Offload Pair Seconds      12.390368
  Offload Wait Seconds      16.594657
  Offload Latency Seconds   0.314297
  Offload Neighbor Balance  1.000000
  Offload Pair Balance      1.000000
  Offload Ghost Atoms       Yes
------------------------------------------------
Total wall time: 0:00:49
