LAMMPS (10 Mar 2016)
  using 1 OpenMP thread(s) per MPI task
Intel Package: Affinitizing MPI Tasks to 2 Cores Each
Intel Package: Affinitizing MPI Tasks to 2 Cores Each
Lattice spacing in x,y,z = 5.431 5.431 5.431
Created orthogonal box = (0 0 0) to (434.48 434.48 217.24)
  4 by 8 by 4 MPI processor grid
Created 2048000 atoms
----------------------------------------------------------
Using Intel Coprocessor with 4 threads per core, 14 threads per task
Precision: single
----------------------------------------------------------
Neighbor list info ...
  1 neighbor list requests
  update every 1 steps, delay 5 steps, check yes
  max neighbors/atom: 2000, page size: 100000
  master list distance cutoff = 4.2
  ghost atom cutoff = 4.2
  binsize = 2.1, bins = 207 207 104
Setting up Verlet run ...
  Unit style  : metal
  Current step: 0
  Time step   : 0.001
Memory usage per processor = 78.4039 Mbytes
Step Temp E_pair E_mol TotEng Press 
       0         1000   -9483089.8            0   -9218365.2    7019.4939 
     100    428.47679   -9331638.8            0   -9218210.4   -14378.287 
     200    543.52835   -9362087.3            0     -9218202   -1842.1533 
     300    493.27623   -9348766.8            0   -9218184.4   -3966.3593 
     400    496.78073   -9349690.1            0     -9218180   -2857.0154 
     500    483.51101   -9346175.3            0     -9218178   -3005.2228 
     600    469.35592   -9342427.6            0   -9218177.6   -4805.7629 
     700    498.17515     -9350059            0   -9218179.7   -2261.4887 
     800    486.44819   -9346954.3            0   -9218179.5   -3722.6726 
     900    490.99108   -9348156.6            0   -9218179.2    -2992.141 
    1000    480.82548   -9345464.7            0   -9218178.3   -3904.2809 
    1100    489.58456     -9347784            0   -9218178.9   -3212.2495 
    1200    490.12978   -9347927.8            0   -9218178.4   -3104.9629 
    1300     486.9449   -9347084.6            0   -9218178.3   -3489.2928 
    1400    487.16267   -9347141.9            0   -9218177.9   -3281.7294 
    1500    486.79368   -9347044.3            0     -9218178   -3449.6933 
    1600    488.82758   -9347582.9            0   -9218178.2   -3140.4348 
    1700    487.98108   -9347358.7            0   -9218178.1   -3302.2488 
    1800    486.20359   -9346887.9            0   -9218177.9   -3392.5364 
    1900     488.7618   -9347564.9            0   -9218177.6   -3152.2236 
    2000    486.09071   -9346857.3            0   -9218177.1   -3409.4505 
Loop time of 42.9946 on 128 procs for 2000 steps with 2048000 atoms

Performance: 4.019 ns/day, 5.971 hours/ns, 46.517 timesteps/s
103.8% CPU use with 128 MPI tasks x 1 OpenMP threads

MPI task timing breakdown:
Section |  min time  |  avg time  |  max time  |%varavg| %total
---------------------------------------------------------------
Pair    | 19.387     | 21.184     | 27.805     |  31.9 | 49.27
Neigh   | 0.57108    | 0.73432    | 0.87847    |   6.6 |  1.71
Comm    | 4.7443     | 11.676     | 15.572     |  72.8 | 27.16
Output  | 0.13958    | 0.19365    | 0.31383    |   9.8 |  0.45
Modify  | 0.27769    | 0.31423    | 0.34299    |   2.3 |  0.73
Other   |            | 8.893      |            |       | 20.68

Nlocal:    16000 ave 16079 max 15918 min
Histogram: 1 5 17 14 20 31 17 17 5 1
Nghost:    7461.1 ave 7526 max 7381 min
Histogram: 1 2 9 13 30 23 25 12 7 6
Neighs:    0 ave 0 max 0 min
Histogram: 128 0 0 0 0 0 0 0 0 0
FullNghs:  86374.6 ave 124846 max 69681 min
Histogram: 2 19 78 8 5 2 6 3 3 2

Total # of neighbors = 11055943
Ave neighs/atom = 5.39841
Neighbor list builds = 76
Dangerous builds = 0

------------------------------------------------
               Offload Timing Data
------------------------------------------------
  Data Pack/Cast Seconds    0.552119
  Host Neighbor Seconds     0.575083
  Host Pair Seconds         19.056807
  Offload Neighbor Seconds  0.769647
  Offload Pair Seconds      14.836628
  Offload Wait Seconds      0.915208
  Offload Latency Seconds   0.793453
  Offload Neighbor Balance  0.672475
  Offload Pair Balance      0.672562
  Offload Ghost Atoms       Yes
------------------------------------------------
Total wall time: 0:00:51
