LAMMPS (10 Mar 2016)
  using 1 OpenMP thread(s) per MPI task
Intel Package: Affinitizing MPI Tasks to 2 Cores Each
Intel Package: Affinitizing MPI Tasks to 2 Cores Each
Lattice spacing in x,y,z = 5.431 5.431 5.431
Created orthogonal box = (0 0 0) to (434.48 434.48 217.24)
  4 by 8 by 4 MPI processor grid
Created 2048000 atoms
----------------------------------------------------------
Using Intel Coprocessor with 4 threads per core, 14 threads per task
Precision: mixed
----------------------------------------------------------
Neighbor list info ...
  1 neighbor list requests
  update every 1 steps, delay 5 steps, check yes
  max neighbors/atom: 2000, page size: 100000
  master list distance cutoff = 4.2
  ghost atom cutoff = 4.2
  binsize = 2.1, bins = 207 207 104
Setting up Verlet run ...
  Unit style  : metal
  Current step: 0
  Time step   : 0.001
Memory usage per processor = 84.4582 Mbytes
Step Temp E_pair E_mol TotEng Press 
       0         1000   -9483083.8            0   -9218359.1    7019.6578 
     100    428.47678   -9331638.8            0   -9218210.5   -14378.294 
     200    543.52838   -9362087.2            0   -9218201.9   -1842.1779 
     300    493.27637   -9348766.7            0   -9218184.3   -3966.4046 
     400    496.78078   -9349690.3            0   -9218180.2   -2857.0884 
     500    483.51124   -9346175.2            0   -9218177.9   -3005.2791 
     600    469.35603   -9342427.6            0   -9218177.5   -4805.8287 
     700    498.17515     -9350059            0   -9218179.8   -2261.5793 
     800    486.44819   -9346954.3            0   -9218179.4   -3722.6243 
     900    490.99085   -9348156.6            0   -9218179.2   -2992.1204 
    1000    480.82566   -9345464.8            0   -9218178.4   -3904.1883 
    1100    489.58443   -9347783.9            0   -9218178.9   -3212.3167 
    1200    490.12994   -9347928.3            0   -9218178.8   -3105.0543 
    1300    486.94478   -9347084.8            0   -9218178.5   -3489.2779 
    1400    487.16242   -9347142.3            0   -9218178.4   -3281.7851 
    1500    486.79389   -9347044.5            0   -9218178.2   -3449.7159 
    1600    488.82684   -9347582.5            0   -9218177.9   -3140.4104 
    1700    487.98076   -9347358.6            0     -9218178   -3302.1811 
    1800    486.20302   -9346887.7            0   -9218177.8   -3392.4997 
    1900    488.76234     -9347565            0   -9218177.6   -3152.2512 
    2000    486.09038   -9346857.4            0   -9218177.3    -3409.432 
Loop time of 56.6754 on 128 procs for 2000 steps with 2048000 atoms

Performance: 3.049 ns/day, 7.872 hours/ns, 35.289 timesteps/s
103.3% CPU use with 128 MPI tasks x 1 OpenMP threads

MPI task timing breakdown:
Section |  min time  |  avg time  |  max time  |%varavg| %total
---------------------------------------------------------------
Pair    | 20.643     | 23.24      | 26.5       |  19.1 | 41.01
Neigh   | 0.58084    | 0.79414    | 0.8997     |   8.4 |  1.40
Comm    | 7.7986     | 16.254     | 21.404     |  66.4 | 28.68
Output  | 0.043848   | 0.1599     | 0.23436    |  10.6 |  0.28
Modify  | 0.29355    | 0.31941    | 0.33767    |   1.6 |  0.56
Other   |            | 15.91      |            |       | 28.07

Nlocal:    16000 ave 16079 max 15917 min
Histogram: 1 3 19 12 21 32 15 18 6 1
Nghost:    7461.01 ave 7527 max 7380 min
Histogram: 1 2 9 13 32 24 20 14 7 6
Neighs:    0 ave 0 max 0 min
Histogram: 128 0 0 0 0 0 0 0 0 0
FullNghs:  87282.7 ave 112202 max 57159 min
Histogram: 3 0 1 0 26 73 13 9 1 2

Total # of neighbors = 11172189
Ave neighs/atom = 5.45517
Neighbor list builds = 76
Dangerous builds = 0

------------------------------------------------
               Offload Timing Data
------------------------------------------------
  Data Pack/Cast Seconds    0.642025
  Host Neighbor Seconds     0.591977
  Host Pair Seconds         20.757949
  Offload Neighbor Seconds  0.762010
  Offload Pair Seconds      16.534292
  Offload Wait Seconds      1.050952
  Offload Latency Seconds   0.963879
  Offload Neighbor Balance  0.670056
  Offload Pair Balance      0.669096
  Offload Ghost Atoms       Yes
------------------------------------------------
Total wall time: 0:01:05
