LAMMPS (10 Mar 2016)
  using 1 OpenMP thread(s) per MPI task
Intel Package: Affinitizing MPI Tasks to 2 Cores Each
Intel Package: Affinitizing MPI Tasks to 2 Cores Each
Lattice spacing in x,y,z = 5.431 5.431 5.431
Created orthogonal box = (0 0 0) to (434.48 434.48 217.24)
  4 by 4 by 2 MPI processor grid
Created 2048000 atoms
----------------------------------------------------------
Using Intel Coprocessor with 4 threads per core, 14 threads per task
Precision: mixed
----------------------------------------------------------
Neighbor list info ...
  1 neighbor list requests
  update every 1 steps, delay 5 steps, check yes
  max neighbors/atom: 2000, page size: 100000
  master list distance cutoff = 4.2
  ghost atom cutoff = 4.2
  binsize = 2.1, bins = 207 207 104
Setting up Verlet run ...
  Unit style  : metal
  Current step: 0
  Time step   : 0.001
Memory usage per processor = 325.845 Mbytes
Step Temp E_pair E_mol TotEng Press 
       0         1000   -9483083.8            0   -9218359.1    7019.6551 
     100    428.48434   -9331639.7            0   -9218209.4   -14378.154 
     200    543.53269   -9362087.5            0     -9218201   -1842.1515 
     300    493.27742   -9348766.4            0   -9218183.7   -3966.1967 
     400    496.78136     -9349690            0   -9218179.7   -2857.0294 
     500    483.51258     -9346175            0   -9218177.3   -3005.0699 
     600    469.35705   -9342427.4            0     -9218177   -4805.7342 
     700    498.17872   -9350059.8            0   -9218179.6   -2261.6561 
     800      486.448   -9346954.3            0   -9218179.5   -3722.4385 
     900    490.99292   -9348157.5            0   -9218179.5   -2992.1237 
    1000    480.82635   -9345465.3            0   -9218178.8   -3904.1807 
    1100    489.58529   -9347784.3            0     -9218179   -3212.2779 
    1200    490.13178     -9347929            0   -9218179.1    -3105.138 
    1300    486.95258   -9347087.2            0   -9218178.8   -3489.3181 
    1400    487.16532   -9347143.4            0   -9218178.7   -3281.9516 
    1500    486.79203   -9347044.4            0   -9218178.6   -3449.4969 
    1600    488.82674   -9347583.1            0   -9218178.6   -3140.2862 
    1700     487.9728   -9347357.1            0   -9218178.7   -3302.0929 
    1800    486.20473   -9346888.9            0   -9218178.5   -3392.3589 
    1900    488.77545   -9347569.3            0   -9218178.4    -3152.448 
    2000     486.0952   -9346859.6            0   -9218178.2   -3409.4658 
Loop time of 104.151 on 32 procs for 2000 steps with 2048000 atoms

Performance: 1.659 ns/day, 14.465 hours/ns, 19.203 timesteps/s
102.9% CPU use with 32 MPI tasks x 1 OpenMP threads

MPI task timing breakdown:
Section |  min time  |  avg time  |  max time  |%varavg| %total
---------------------------------------------------------------
Pair    | 76.285     | 88.173     | 91.285     |  42.8 | 84.66
Neigh   | 2.2535     | 2.7013     | 2.8208     |   9.9 |  2.59
Comm    | 3.9512     | 6.9191     | 18.994     | 159.0 |  6.64
Output  | 0.012671   | 0.015819   | 0.021117   |   2.0 |  0.02
Modify  | 2.8357     | 3.395      | 3.7287     |  12.1 |  3.26
Other   |            | 2.947      |            |       |  2.83

Nlocal:    64000 ave 64133 max 63878 min
Histogram: 1 3 7 4 2 4 3 5 0 3
Nghost:    17070.1 ave 17156 max 16943 min
Histogram: 1 1 1 2 3 9 5 3 4 3
Neighs:    0 ave 0 max 0 min
Histogram: 32 0 0 0 0 0 0 0 0 0
FullNghs:  370786 ave 384342 max 322080 min
Histogram: 2 1 1 1 0 0 0 1 12 14

Total # of neighbors = 11865145
Ave neighs/atom = 5.79353
Neighbor list builds = 76
Dangerous builds = 0

------------------------------------------------
               Offload Timing Data
------------------------------------------------
  Data Pack/Cast Seconds    3.400027
  Host Neighbor Seconds     2.394446
  Host Pair Seconds         81.444867
  Offload Neighbor Seconds  3.109735
  Offload Pair Seconds      69.106672
  Offload Wait Seconds      2.448685
  Offload Latency Seconds   1.091551
  Offload Neighbor Balance  0.648371
  Offload Pair Balance      0.648534
  Offload Ghost Atoms       Yes
------------------------------------------------
Total wall time: 0:02:04
