LAMMPS (10 Mar 2016)
  using 1 OpenMP thread(s) per MPI task
Intel Package: Affinitizing MPI Tasks to 2 Cores Each
Intel Package: Affinitizing MPI Tasks to 2 Cores Each
Lattice spacing in x,y,z = 5.431 5.431 5.431
Created orthogonal box = (0 0 0) to (434.48 434.48 217.24)
  4 by 4 by 2 MPI processor grid
Created 2048000 atoms
----------------------------------------------------------
Using Intel Coprocessor with 4 threads per core, 29 threads per task
Precision: single
----------------------------------------------------------
Neighbor list info ...
  1 neighbor list requests
  update every 1 steps, delay 5 steps, check yes
  max neighbors/atom: 2000, page size: 100000
  master list distance cutoff = 4.2
  ghost atom cutoff = 4.2
  binsize = 2.1, bins = 207 207 104
Setting up Verlet run ...
  Unit style  : metal
  Current step: 0
  Time step   : 0.001
Memory usage per processor = 324.521 Mbytes
Step Temp E_pair E_mol TotEng Press 
       0         1000   -9483091.2            0   -9218366.6    7020.8926 
     100    428.48435   -9331639.5            0   -9218209.1    -14378.19 
     200    543.53266   -9362087.2            0   -9218200.8   -1842.0786 
     300    493.27737   -9348766.2            0   -9218183.6   -3966.1423 
     400    496.78128   -9349689.7            0   -9218179.4   -2857.1119 
     500    483.51261   -9346174.8            0   -9218177.1   -3005.0477 
     600    469.35705   -9342427.1            0   -9218176.7   -4805.7105 
     700    498.17862   -9350059.5            0   -9218179.4    -2261.615 
     800    486.44789     -9346954            0   -9218179.2   -3722.4301 
     900    490.99284   -9348157.2            0   -9218179.3   -2992.1509 
    1000    480.82647   -9345465.1            0   -9218178.5   -3904.2397 
    1100    489.58493     -9347784            0   -9218178.8   -3212.2689 
    1200    490.13208   -9347928.8            0   -9218178.8   -3105.1732 
    1300    486.95223   -9347086.8            0   -9218178.6    -3489.275 
    1400    487.16594   -9347143.3            0   -9218178.5   -3281.9182 
    1500    486.79207   -9347044.4            0   -9218178.5   -3449.5106 
    1600    488.82672   -9347582.9            0   -9218178.4   -3140.2201 
    1700    487.97237   -9347356.7            0   -9218178.4   -3302.1008 
    1800    486.20506   -9346888.8            0   -9218178.4   -3392.4315 
    1900     488.7756   -9347569.3            0   -9218178.4   -3152.3936 
    2000    486.09582   -9346859.5            0     -9218178   -3409.4133 
Loop time of 84.4337 on 32 procs for 2000 steps with 2048000 atoms

Performance: 2.047 ns/day, 11.727 hours/ns, 23.687 timesteps/s
102.3% CPU use with 32 MPI tasks x 1 OpenMP threads

MPI task timing breakdown:
Section |  min time  |  avg time  |  max time  |%varavg| %total
---------------------------------------------------------------
Pair    | 54.861     | 59.903     | 61.385     |  21.9 | 70.95
Neigh   | 0.26878    | 0.30307    | 0.32974    |   2.8 |  0.36
Comm    | 14.424     | 16.005     | 21.435     |  43.6 | 18.96
Output  | 0.031259   | 0.044889   | 0.060918   |   4.0 |  0.05
Modify  | 2.4594     | 2.6224     | 2.7966     |   4.6 |  3.11
Other   |            | 5.555      |            |       |  6.58

Nlocal:    64000 ave 64134 max 63877 min
Histogram: 1 3 7 4 2 4 3 5 0 3
Nghost:    17070.2 ave 17157 max 16942 min
Histogram: 1 1 1 2 2 11 4 4 3 3
Neighs:    0 ave 0 max 0 min
Histogram: 32 0 0 0 0 0 0 0 0 0
FullNghs:  0 ave 0 max 0 min
Histogram: 32 0 0 0 0 0 0 0 0 0

Total # of neighbors = 0
Ave neighs/atom = 0
Neighbor list builds = 76
Dangerous builds = 0

------------------------------------------------
               Offload Timing Data
------------------------------------------------
  Data Pack/Cast Seconds    3.148057
  Host Neighbor Seconds     0.112229
  Host Pair Seconds         0.000000
  Offload Neighbor Seconds  2.268499
  Offload Pair Seconds      47.746787
  Offload Wait Seconds      56.384691
  Offload Latency Seconds   0.463943
  Offload Neighbor Balance  1.000000
  Offload Pair Balance      1.000000
  Offload Ghost Atoms       Yes
------------------------------------------------
Total wall time: 0:01:36
