LAMMPS (10 Mar 2016)
  using 1 OpenMP thread(s) per MPI task
Intel Package: Affinitizing MPI Tasks to 2 Cores Each
Intel Package: Affinitizing MPI Tasks to 2 Cores Each
Lattice spacing in x,y,z = 5.431 5.431 5.431
Created orthogonal box = (0 0 0) to (434.48 434.48 217.24)
  4 by 4 by 4 MPI processor grid
Created 2048000 atoms
----------------------------------------------------------
Using Intel Coprocessor with 4 threads per core, 29 threads per task
Precision: mixed
----------------------------------------------------------
Neighbor list info ...
  1 neighbor list requests
  update every 1 steps, delay 5 steps, check yes
  max neighbors/atom: 2000, page size: 100000
  master list distance cutoff = 4.2
  ghost atom cutoff = 4.2
  binsize = 2.1, bins = 207 207 104
Setting up Verlet run ...
  Unit style  : metal
  Current step: 0
  Time step   : 0.001
Memory usage per processor = 187.555 Mbytes
Step Temp E_pair E_mol TotEng Press 
       0         1000   -9483083.8            0   -9218359.1    7019.6572 
     100    428.48165   -9331639.4            0   -9218209.8   -14378.183 
     200    543.53113   -9362087.4            0   -9218201.3    -1842.144 
     300    493.27767   -9348766.6            0   -9218183.9   -3966.2476 
     400    496.78072   -9349689.9            0   -9218179.8   -2857.0294 
     500    483.51276   -9346174.9            0   -9218177.2   -3005.1148 
     600    469.35753     -9342427            0   -9218176.5   -4805.7938 
     700    498.17747   -9350058.9            0   -9218179.1   -2261.5552 
     800    486.44833   -9346953.7            0   -9218178.8   -3722.5089 
     900    490.99244   -9348156.7            0   -9218178.9   -2992.0961 
    1000    480.82592   -9345464.8            0   -9218178.4   -3904.1669 
    1100    489.58853   -9347784.7            0   -9218178.5   -3212.3035 
    1200    490.13088   -9347928.2            0   -9218178.5   -3105.2306 
    1300    486.95184   -9347086.3            0   -9218178.1   -3489.2962 
    1400     487.1646   -9347142.6            0   -9218178.1    -3282.046 
    1500    486.79403   -9347044.2            0   -9218177.8   -3449.5981 
    1600    488.82737   -9347582.5            0   -9218177.9   -3140.1711 
    1700    487.97482   -9347356.8            0   -9218177.9   -3302.1805 
    1800    486.20697   -9346888.5            0   -9218177.6   -3392.3824 
    1900    488.76901   -9347566.6            0   -9218177.4   -3152.0837 
    2000    486.09944   -9346859.6            0   -9218177.1   -3409.2728 
Loop time of 64.1979 on 64 procs for 2000 steps with 2048000 atoms

Performance: 2.692 ns/day, 8.916 hours/ns, 31.154 timesteps/s
104.7% CPU use with 64 MPI tasks x 1 OpenMP threads

MPI task timing breakdown:
Section |  min time  |  avg time  |  max time  |%varavg| %total
---------------------------------------------------------------
Pair    | 29.441     | 32.878     | 36.829     |  21.1 | 51.21
Neigh   | 0.87656    | 0.96782    | 1.1018     |   4.3 |  1.51
Comm    | 15.194     | 19.937     | 23.741     |  48.1 | 31.06
Output  | 0.038476   | 0.11097    | 0.17144    |   9.1 |  0.17
Modify  | 0.67322    | 0.71076    | 0.76196    |   1.8 |  1.11
Other   |            | 9.593      |            |       | 14.94

Nlocal:    32000 ave 32082 max 31917 min
Histogram: 7 0 10 8 6 6 10 6 7 4
Nghost:    11610.4 ave 11673 max 11514 min
Histogram: 1 0 5 4 12 10 7 12 8 5
Neighs:    0 ave 0 max 0 min
Histogram: 64 0 0 0 0 0 0 0 0 0
FullNghs:  124682 ave 150057 max 74740 min
Histogram: 1 1 1 0 0 7 39 7 4 4

Total # of neighbors = 7979677
Ave neighs/atom = 3.89633
Neighbor list builds = 76
Dangerous builds = 0

------------------------------------------------
               Offload Timing Data
------------------------------------------------
  Data Pack/Cast Seconds    1.667950
  Host Neighbor Seconds     0.859518
  Host Pair Seconds         29.574606
  Offload Neighbor Seconds  0.878009
  Offload Pair Seconds      24.414732
  Offload Wait Seconds      1.121454
  Offload Latency Seconds   0.568585
  Offload Neighbor Balance  0.763474
  Offload Pair Balance      0.763641
  Offload Ghost Atoms       Yes
------------------------------------------------
Total wall time: 0:01:12
