LAMMPS (10 Mar 2016)
  using 1 OpenMP thread(s) per MPI task
Intel Package: Affinitizing MPI Tasks to 2 Cores Each
Intel Package: Affinitizing MPI Tasks to 2 Cores Each
Lattice spacing in x,y,z = 5.431 5.431 5.431
Created orthogonal box = (0 0 0) to (434.48 434.48 217.24)
  4 by 8 by 4 MPI processor grid
Created 2048000 atoms
----------------------------------------------------------
Using Intel Coprocessor with 4 threads per core, 14 threads per task
Precision: mixed
----------------------------------------------------------
Neighbor list info ...
  1 neighbor list requests
  update every 1 steps, delay 5 steps, check yes
  max neighbors/atom: 2000, page size: 100000
  master list distance cutoff = 4.2
  ghost atom cutoff = 4.2
  binsize = 2.1, bins = 207 207 104
Setting up Verlet run ...
  Unit style  : metal
  Current step: 0
  Time step   : 0.001
Memory usage per processor = 84.4582 Mbytes
Step Temp E_pair E_mol TotEng Press 
       0         1000   -9483083.4            0   -9218358.7    7019.6991 
     100    428.47677   -9331638.9            0   -9218210.6   -14378.295 
     200    543.52838   -9362087.3            0     -9218202    -1842.178 
     300     493.2763   -9348766.8            0   -9218184.4   -3966.4032 
     400     496.7807   -9349690.5            0   -9218180.4   -2857.0907 
     500    483.51118   -9346175.3            0   -9218177.9   -3005.2799 
     600    469.35589   -9342427.7            0   -9218177.6   -4805.8296 
     700    498.17506   -9350059.1            0   -9218179.8   -2261.5794 
     800    486.44819   -9346954.4            0   -9218179.6   -3722.6254 
     900    490.99101   -9348156.7            0   -9218179.3   -2992.1303 
    1000     480.8256   -9345464.9            0   -9218178.5   -3904.1973 
    1100    489.58443     -9347784            0     -9218179   -3212.3169 
    1200    490.13002   -9347928.4            0   -9218178.9   -3105.0599 
    1300    486.94469   -9347084.8            0   -9218178.6   -3489.2829 
    1400    487.16264   -9347142.4            0   -9218178.4   -3281.7957 
    1500     486.7938   -9347044.6            0   -9218178.2    -3449.708 
    1600    488.82721   -9347582.6            0     -9218178   -3140.4349 
    1700     487.9813   -9347358.8            0   -9218178.1   -3302.1871 
    1800    486.20381     -9346888            0   -9218177.8   -3392.5421 
    1900    488.76224   -9347565.1            0   -9218177.7   -3152.2721 
    2000    486.09152   -9346857.8            0   -9218177.4   -3409.4458 
Loop time of 54.792 on 128 procs for 2000 steps with 2048000 atoms

Performance: 3.154 ns/day, 7.610 hours/ns, 36.502 timesteps/s
104.1% CPU use with 128 MPI tasks x 1 OpenMP threads

MPI task timing breakdown:
Section |  min time  |  avg time  |  max time  |%varavg| %total
---------------------------------------------------------------
Pair    | 27.909     | 29.117     | 35.911     |  20.7 | 53.14
Neigh   | 0.82104    | 0.96289    | 1.1063     |   6.6 |  1.76
Comm    | 5.6464     | 12.162     | 20.349     | 123.7 | 22.20
Output  | 0.032558   | 0.17161    | 0.27746    |  15.8 |  0.31
Modify  | 0.29973    | 0.33191    | 0.38111    |   3.8 |  0.61
Other   |            | 12.05      |            |       | 21.99

Nlocal:    16000 ave 16079 max 15917 min
Histogram: 1 4 18 13 20 31 16 19 5 1
Nghost:    7461.06 ave 7527 max 7382 min
Histogram: 1 2 9 13 32 24 23 11 7 6
Neighs:    0 ave 0 max 0 min
Histogram: 128 0 0 0 0 0 0 0 0 0
FullNghs:  118697 ave 119478 max 117973 min
Histogram: 7 10 11 14 22 25 22 10 5 2

Total # of neighbors = 15193202
Ave neighs/atom = 7.41856
Neighbor list builds = 76
Dangerous builds = 0

------------------------------------------------
               Offload Timing Data
------------------------------------------------
  Data Pack/Cast Seconds    0.637891
  Host Neighbor Seconds     0.789953
  Host Pair Seconds         27.827584
  Offload Neighbor Seconds  0.613425
  Offload Pair Seconds      13.970459
  Offload Wait Seconds      0.032777
  Offload Latency Seconds   0.764650
  Offload Neighbor Balance  0.550000
  Offload Pair Balance      0.550000
  Offload Ghost Atoms       Yes
------------------------------------------------
Total wall time: 0:01:04
