LAMMPS (10 Mar 2016)
  using 1 OpenMP thread(s) per MPI task
Intel Package: Affinitizing MPI Tasks to 2 Cores Each
Intel Package: Affinitizing MPI Tasks to 2 Cores Each
Lattice spacing in x,y,z = 5.431 5.431 5.431
Created orthogonal box = (0 0 0) to (434.48 434.48 217.24)
  2 by 4 by 2 MPI processor grid
Created 2048000 atoms
----------------------------------------------------------
Using Intel Coprocessor with 4 threads per core, 29 threads per task
Precision: mixed
----------------------------------------------------------
Neighbor list info ...
  1 neighbor list requests
  update every 1 steps, delay 5 steps, check yes
  max neighbors/atom: 2000, page size: 100000
  master list distance cutoff = 4.2
  ghost atom cutoff = 4.2
  binsize = 2.1, bins = 207 207 104
Setting up Verlet run ...
  Unit style  : metal
  Current step: 0
  Time step   : 0.001
Memory usage per processor = 721.322 Mbytes
Step Temp E_pair E_mol TotEng Press 
       0         1000   -9483083.9            0   -9218359.3    7019.6438 
     100    428.48599   -9331639.6            0   -9218208.8   -14378.106 
     200    543.53402   -9362087.3            0   -9218200.4   -1842.1318 
     300    493.27794   -9348765.9            0   -9218183.1   -3966.1768 
     400      496.782   -9349689.6            0   -9218179.1   -2856.9557 
     500    483.51298   -9346174.7            0   -9218176.9   -3004.9895 
     600    469.35913   -9342427.6            0   -9218176.6   -4805.7296 
     700     498.1784   -9350059.3            0   -9218179.2   -2261.6082 
     800    486.44798   -9346953.9            0   -9218179.1   -3722.3957 
     900    490.99466   -9348157.5            0   -9218179.1   -2992.0718 
    1000    480.82709   -9345465.4            0   -9218178.6   -3904.0616 
    1100    489.58438     -9347784            0     -9218179   -3212.3335 
    1200    490.13256   -9347929.3            0   -9218179.1   -3105.0694 
    1300    486.95023   -9347086.6            0   -9218178.9    -3489.238 
    1400    487.16341     -9347143            0   -9218178.9   -3281.9211 
    1500    486.78889   -9347043.7            0   -9218178.7   -3449.4865 
    1600    488.82627     -9347583            0   -9218178.6   -3140.2099 
    1700    487.97055   -9347356.6            0   -9218178.8     -3302.05 
    1800    486.20177   -9346888.2            0   -9218178.6   -3392.3147 
    1900    488.77387   -9347569.1            0   -9218178.6   -3152.4465 
    2000    486.09998     -9346861            0   -9218178.4   -3409.4365 
Loop time of 192.283 on 16 procs for 2000 steps with 2048000 atoms

Performance: 0.899 ns/day, 26.706 hours/ns, 10.401 timesteps/s
100.2% CPU use with 16 MPI tasks x 1 OpenMP threads

MPI task timing breakdown:
Section |  min time  |  avg time  |  max time  |%varavg| %total
---------------------------------------------------------------
Pair    | 151.98     | 163.41     | 167.39     |  26.3 | 84.98
Neigh   | 0.53481    | 0.58655    | 0.61176    |   2.7 |  0.31
Comm    | 10.876     | 14.886     | 26.396     |  89.3 |  7.74
Output  | 0.027654   | 0.038227   | 0.053639   |   5.0 |  0.02
Modify  | 6.7661     | 7.0751     | 7.3811     |   7.6 |  3.68
Other   |            | 6.287      |            |       |  3.27

Nlocal:    128000 ave 128155 max 127837 min
Histogram: 2 0 2 2 1 2 3 2 0 2
Nghost:    27984.2 ave 28127 max 27854 min
Histogram: 1 1 1 3 2 5 1 1 0 1
Neighs:    0 ave 0 max 0 min
Histogram: 16 0 0 0 0 0 0 0 0 0
FullNghs:  0 ave 0 max 0 min
Histogram: 16 0 0 0 0 0 0 0 0 0

Total # of neighbors = 0
Ave neighs/atom = 0
Neighbor list builds = 76
Dangerous builds = 0

------------------------------------------------
               Offload Timing Data
------------------------------------------------
  Data Pack/Cast Seconds    6.253104
  Host Neighbor Seconds     0.224002
  Host Pair Seconds         0.000000
  Offload Neighbor Seconds  4.752624
  Offload Pair Seconds      139.607391
  Offload Wait Seconds      156.600557
  Offload Latency Seconds   0.735641
  Offload Neighbor Balance  1.000000
  Offload Pair Balance      1.000000
  Offload Ghost Atoms       Yes
------------------------------------------------
Total wall time: 0:03:35
