LAMMPS (10 Mar 2016)
  using 1 OpenMP thread(s) per MPI task
Intel Package: Affinitizing MPI Tasks to 2 Cores Each
Intel Package: Affinitizing MPI Tasks to 2 Cores Each
Lattice spacing in x,y,z = 5.431 5.431 5.431
Created orthogonal box = (0 0 0) to (434.48 434.48 217.24)
  4 by 4 by 2 MPI processor grid
Created 2048000 atoms
----------------------------------------------------------
Using Intel Coprocessor with 4 threads per core, 29 threads per task
Precision: mixed
----------------------------------------------------------
Neighbor list info ...
  1 neighbor list requests
  update every 1 steps, delay 5 steps, check yes
  max neighbors/atom: 2000, page size: 100000
  master list distance cutoff = 4.2
  ghost atom cutoff = 4.2
  binsize = 2.1, bins = 207 207 104
Setting up Verlet run ...
  Unit style  : metal
  Current step: 0
  Time step   : 0.001
Memory usage per processor = 367.367 Mbytes
Step Temp E_pair E_mol TotEng Press 
       0         1000   -9483083.3            0   -9218358.7    7019.7012 
     100    428.48436   -9331639.8            0   -9218209.4   -14378.153 
     200    543.53268   -9362087.5            0     -9218201   -1842.1501 
     300    493.27744   -9348766.5            0   -9218183.8   -3966.1978 
     400    496.78138     -9349690            0   -9218179.8    -2857.029 
     500    483.51259     -9346175            0   -9218177.3    -3005.067 
     600    469.35693   -9342427.4            0   -9218177.1   -4805.7303 
     700    498.17869   -9350059.9            0   -9218179.7   -2261.6634 
     800    486.44784   -9346954.3            0   -9218179.6   -3722.4355 
     900    490.99287   -9348157.5            0   -9218179.6   -2992.1183 
