LAMMPS (10 Mar 2016)
  using 1 OpenMP thread(s) per MPI task
Intel Package: Affinitizing MPI Tasks to 2 Cores Each
Intel Package: Affinitizing MPI Tasks to 2 Cores Each
Lattice spacing in x,y,z = 5.431 5.431 5.431
Created orthogonal box = (0 0 0) to (434.48 434.48 217.24)
  4 by 4 by 2 MPI processor grid
Created 2048000 atoms
----------------------------------------------------------
Using Intel Coprocessor with 4 threads per core, 14 threads per task
Precision: single
----------------------------------------------------------
Neighbor list info ...
  1 neighbor list requests
  update every 1 steps, delay 5 steps, check yes
  max neighbors/atom: 2000, page size: 100000
  master list distance cutoff = 4.2
  ghost atom cutoff = 4.2
  binsize = 2.1, bins = 207 207 104
Setting up Verlet run ...
  Unit style  : metal
  Current step: 0
  Time step   : 0.001
Memory usage per processor = 303.731 Mbytes
Step Temp E_pair E_mol TotEng Press 
       0         1000   -9483065.6            0   -9218340.9    7021.6725 
     100    428.48434   -9331639.5            0   -9218209.1   -14378.196 
     200    543.53266   -9362087.2            0   -9218200.7   -1842.1537 
     300    493.27737   -9348766.2            0   -9218183.5   -3966.3065 
     400    496.78129   -9349689.7            0   -9218179.5   -2857.0627 
     500    483.51248   -9346174.7            0     -9218177   -3005.0205 
     600    469.35713   -9342427.2            0   -9218176.8   -4805.7238 
     700    498.17873   -9350059.5            0   -9218179.3     -2261.57 
     800    486.44803   -9346954.1            0   -9218179.3   -3722.3803 
     900    490.99301   -9348157.2            0   -9218179.3   -2992.1504 
    1000    480.82661   -9345465.2            0   -9218178.5   -3904.1296 
    1100    489.58515     -9347784            0   -9218178.7   -3212.2209 
    1200     490.1321   -9347928.7            0   -9218178.7   -3105.2946 
    1300    486.95241   -9347086.9            0   -9218178.6   -3489.4828 
    1400    487.16601   -9347143.3            0   -9218178.5   -3281.8283 
    1500    486.79233   -9347044.1            0   -9218178.1   -3449.4441 
    1600    488.82698   -9347582.7            0   -9218178.1   -3140.2576 
    1700    487.97295   -9347356.7            0   -9218178.3   -3302.1228 
    1800    486.20523   -9346888.9            0   -9218178.4   -3392.3333 
    1900    488.77583     -9347569            0     -9218178   -3152.4231 
    2000    486.09562   -9346859.3            0   -9218177.8   -3409.4252 
Loop time of 127.338 on 32 procs for 2000 steps with 2048000 atoms

Performance: 1.357 ns/day, 17.686 hours/ns, 15.706 timesteps/s
100.9% CPU use with 32 MPI tasks x 1 OpenMP threads

MPI task timing breakdown:
Section |  min time  |  avg time  |  max time  |%varavg| %total
---------------------------------------------------------------
Pair    | 94.442     | 104.91     | 107.55     |  37.9 | 82.38
Neigh   | 0.27392    | 0.42199    | 0.47204    |   8.9 |  0.33
Comm    | 12.13      | 14.666     | 25.374     | 100.1 | 11.52
Output  | 0.016079   | 0.032125   | 0.055465   |   6.5 |  0.03
Modify  | 2.6332     | 2.7402     | 2.8515     |   3.5 |  2.15
Other   |            | 4.573      |            |       |  3.59

Nlocal:    64000 ave 64133 max 63877 min
Histogram: 1 3 7 4 2 4 3 5 0 3
Nghost:    17070.3 ave 17156 max 16942 min
Histogram: 1 1 1 2 2 10 5 3 4 3
Neighs:    0 ave 0 max 0 min
Histogram: 32 0 0 0 0 0 0 0 0 0
FullNghs:  0 ave 0 max 0 min
Histogram: 32 0 0 0 0 0 0 0 0 0

Total # of neighbors = 0
Ave neighs/atom = 0
Neighbor list builds = 76
Dangerous builds = 0

------------------------------------------------
               Offload Timing Data
------------------------------------------------
  Data Pack/Cast Seconds    3.242398
  Host Neighbor Seconds     0.111223
  Host Pair Seconds         0.000000
  Offload Neighbor Seconds  4.767069
  Offload Pair Seconds      85.600541
  Offload Wait Seconds      100.608234
  Offload Latency Seconds   1.271913
  Offload Neighbor Balance  1.000000
  Offload Pair Balance      1.000000
  Offload Ghost Atoms       Yes
------------------------------------------------
Total wall time: 0:02:27
