LAMMPS (10 Mar 2016)
  using 1 OpenMP thread(s) per MPI task
Intel Package: Affinitizing MPI Tasks to 2 Cores Each
Intel Package: Affinitizing MPI Tasks to 2 Cores Each
Lattice spacing in x,y,z = 5.431 5.431 5.431
Created orthogonal box = (0 0 0) to (434.48 434.48 217.24)
  4 by 8 by 4 MPI processor grid
Created 2048000 atoms
----------------------------------------------------------
Using Intel Coprocessor with 4 threads per core, 14 threads per task
Precision: single
----------------------------------------------------------
Neighbor list info ...
  1 neighbor list requests
  update every 1 steps, delay 5 steps, check yes
  max neighbors/atom: 2000, page size: 100000
  master list distance cutoff = 4.2
  ghost atom cutoff = 4.2
  binsize = 2.1, bins = 207 207 104
Setting up Verlet run ...
  Unit style  : metal
  Current step: 0
  Time step   : 0.001
Memory usage per processor = 78.0003 Mbytes
Step Temp E_pair E_mol TotEng Press 
       0         1000   -9483086.3            0   -9218361.7    7019.4679 
     100    428.47679   -9331638.7            0   -9218210.3   -14378.251 
     200    543.52832     -9362087            0   -9218201.7   -1842.1113 
     300    493.27621   -9348766.5            0   -9218184.1   -3966.3988 
     400    496.78071   -9349690.2            0   -9218180.1   -2857.0265 
     500    483.51112   -9346174.9            0   -9218177.6   -3005.3607 
     600    469.35594   -9342427.4            0   -9218177.3   -4805.8536 
     700    498.17513   -9350058.8            0   -9218179.5   -2261.5159 
     800    486.44809   -9346954.1            0   -9218179.3   -3722.5739 
     900    490.99089   -9348156.4            0     -9218179    -2992.173 
    1000    480.82559   -9345464.6            0   -9218178.2   -3904.2407 
    1100    489.58468   -9347783.8            0   -9218178.7   -3212.2998 
    1200    490.13003   -9347928.1            0   -9218178.6   -3105.0584 
    1300    486.94466   -9347084.6            0   -9218178.4   -3489.2997 
    1400    487.16233   -9347142.1            0   -9218178.2    -3281.737 
    1500    486.79341   -9347044.3            0     -9218178   -3449.7489 
    1600    488.82708   -9347582.4            0   -9218177.8   -3140.4394 
    1700    487.98041   -9347358.5            0     -9218178   -3302.2042 
    1800    486.20314   -9346887.7            0   -9218177.7   -3392.5389 
    1900    488.76244   -9347564.9            0   -9218177.4    -3152.277 
    2000    486.09055   -9346857.4            0   -9218177.2   -3409.3696 
Loop time of 52.0618 on 128 procs for 2000 steps with 2048000 atoms

Performance: 3.319 ns/day, 7.231 hours/ns, 38.416 timesteps/s
100.1% CPU use with 128 MPI tasks x 1 OpenMP threads

MPI task timing breakdown:
Section |  min time  |  avg time  |  max time  |%varavg| %total
---------------------------------------------------------------
Pair    | 26.278     | 26.986     | 28.027     |   5.2 | 51.83
Neigh   | 0.24458    | 0.31819    | 0.37983    |   3.8 |  0.61
Comm    | 15.307     | 16.541     | 17.85      |  13.1 | 31.77
Output  | 0.035625   | 0.071747   | 0.10849    |   5.0 |  0.14
Modify  | 0.26287    | 0.29945    | 0.32496    |   2.2 |  0.58
Other   |            | 7.845      |            |       | 15.07

Nlocal:    16000 ave 16079 max 15918 min
Histogram: 2 4 18 12 21 30 17 17 6 1
Nghost:    7461.03 ave 7526 max 7381 min
Histogram: 1 2 9 13 31 22 25 11 8 6
Neighs:    0 ave 0 max 0 min
Histogram: 128 0 0 0 0 0 0 0 0 0
FullNghs:  0 ave 0 max 0 min
Histogram: 128 0 0 0 0 0 0 0 0 0

Total # of neighbors = 0
Ave neighs/atom = 0
Neighbor list builds = 76
Dangerous builds = 0

------------------------------------------------
               Offload Timing Data
------------------------------------------------
  Data Pack/Cast Seconds    0.443331
  Host Neighbor Seconds     0.030906
  Host Pair Seconds         0.000000
  Offload Neighbor Seconds  1.127801
  Offload Pair Seconds      21.076297
  Offload Wait Seconds      25.638661
  Offload Latency Seconds   1.160017
  Offload Neighbor Balance  1.000000
  Offload Pair Balance      1.000000
  Offload Ghost Atoms       Yes
------------------------------------------------
Total wall time: 0:01:00
