LAMMPS (10 Mar 2016)
  using 1 OpenMP thread(s) per MPI task
Intel Package: Affinitizing MPI Tasks to 2 Cores Each
Intel Package: Affinitizing MPI Tasks to 2 Cores Each
Lattice spacing in x,y,z = 5.431 5.431 5.431
Created orthogonal box = (0 0 0) to (434.48 434.48 217.24)
  4 by 8 by 4 MPI processor grid
Created 2048000 atoms
----------------------------------------------------------
Using Intel Coprocessor with 4 threads per core, 29 threads per task
Precision: single
----------------------------------------------------------
Neighbor list info ...
  1 neighbor list requests
  update every 1 steps, delay 5 steps, check yes
  max neighbors/atom: 2000, page size: 100000
  master list distance cutoff = 4.2
  ghost atom cutoff = 4.2
  binsize = 2.1, bins = 207 207 104
Setting up Verlet run ...
  Unit style  : metal
  Current step: 0
  Time step   : 0.001
Memory usage per processor = 84.515 Mbytes
Step Temp E_pair E_mol TotEng Press 
       0         1000     -9483240            0   -9218515.3    7020.5522 
     100    428.47678     -9331639            0   -9218210.7   -14378.322 
     200    543.52835   -9362087.4            0     -9218202   -1842.1197 
     300    493.27626   -9348766.9            0   -9218184.5   -3966.4088 
     400    496.78072   -9349690.7            0   -9218180.6   -2857.1595 
     500    483.51105   -9346175.1            0   -9218177.8   -3005.3389 
     600    469.35595   -9342427.7            0   -9218177.6   -4805.7883 
     700    498.17515     -9350059            0   -9218179.8   -2261.6122 
     800    486.44808   -9346954.5            0   -9218179.7   -3722.5955 
     900    490.99083     -9348156            0   -9218178.6   -2992.2155 
    1000    480.82574   -9345464.8            0   -9218178.4   -3904.1821 
    1100    489.58459   -9347783.8            0   -9218178.7   -3212.2772 
    1200       490.13   -9347928.6            0   -9218179.1   -3105.0939 
    1300    486.94479   -9347084.8            0   -9218178.6   -3489.2936 
    1400    487.16263   -9347142.3            0   -9218178.4   -3281.8044 
    1500    486.79375   -9347044.8            0   -9218178.5   -3449.7084 
    1600     488.8276   -9347582.5            0   -9218177.7   -3140.4623 
    1700    487.98058   -9347358.9            0   -9218178.4   -3302.2661 
    1800     486.2036   -9346887.9            0   -9218177.8   -3392.5098 
    1900    488.76252   -9347565.4            0   -9218177.9   -3152.3892 
    2000    486.09041   -9346857.3            0   -9218177.2   -3409.4609 
Loop time of 48.7813 on 128 procs for 2000 steps with 2048000 atoms

Performance: 3.542 ns/day, 6.775 hours/ns, 40.999 timesteps/s
104.7% CPU use with 128 MPI tasks x 1 OpenMP threads

MPI task timing breakdown:
Section |  min time  |  avg time  |  max time  |%varavg| %total
---------------------------------------------------------------
Pair    | 23.296     | 26.728     | 38.423     |  32.5 | 54.79
Neigh   | 0.71909    | 0.83819    | 0.91845    |   4.4 |  1.72
Comm    | 4.2316     | 10.459     | 19.117     | 144.6 | 21.44
Output  | 0.0084772  | 0.15258    | 0.259      |  18.7 |  0.31
Modify  | 0.28259    | 0.32612    | 0.39356    |   4.3 |  0.67
Other   |            | 10.28      |            |       | 21.07

Nlocal:    16000 ave 16079 max 15918 min
Histogram: 2 4 18 13 19 32 17 16 6 1
Nghost:    7461.12 ave 7526 max 7382 min
Histogram: 1 2 10 12 31 25 21 12 8 6
Neighs:    0 ave 0 max 0 min
Histogram: 128 0 0 0 0 0 0 0 0 0
FullNghs:  118696 ave 119481 max 117972 min
Histogram: 7 10 11 14 22 25 22 10 5 2

Total # of neighbors = 15193145
Ave neighs/atom = 7.41853
Neighbor list builds = 76
Dangerous builds = 0

------------------------------------------------
               Offload Timing Data
------------------------------------------------
  Data Pack/Cast Seconds    0.587009
  Host Neighbor Seconds     0.780228
  Host Pair Seconds         25.837779
  Offload Neighbor Seconds  0.309796
  Offload Pair Seconds      7.631493
  Offload Wait Seconds      0.028345
  Offload Latency Seconds   0.306819
  Offload Neighbor Balance  0.550000
  Offload Pair Balance      0.550000
  Offload Ghost Atoms       Yes
------------------------------------------------
Total wall time: 0:00:55
