LAMMPS (10 Mar 2016)
  using 1 OpenMP thread(s) per MPI task
Intel Package: Affinitizing MPI Tasks to 2 Cores Each
Intel Package: Affinitizing MPI Tasks to 2 Cores Each
Lattice spacing in x,y,z = 5.431 5.431 5.431
Created orthogonal box = (0 0 0) to (108.62 108.62 54.31)
  2 by 4 by 2 MPI processor grid
Created 32000 atoms
----------------------------------------------------------
Using Intel Coprocessor with 4 threads per core, 14 threads per task
Precision: mixed
----------------------------------------------------------
Neighbor list info ...
  1 neighbor list requests
  update every 1 steps, delay 5 steps, check yes
  max neighbors/atom: 2000, page size: 100000
  master list distance cutoff = 4.2
  ghost atom cutoff = 4.2
  binsize = 2.1, bins = 52 52 26
Setting up Verlet run ...
  Unit style  : metal
  Current step: 0
  Time step   : 0.001
Memory usage per processor = 13.3154 Mbytes
Step Temp E_pair E_mol TotEng Press 
       0         1000   -148173.19            0   -144036.99    7019.4765 
     100    430.59833   -145815.58            0   -144034.55   -14551.472 
     200    543.50227   -146282.38            0   -144034.35   -2110.6522 
     300    494.98791    -146081.4            0   -144034.04    -3957.687 
     400    497.22745   -146090.66            0   -144034.03   -3083.3484 
     500    477.95917   -146010.89            0   -144033.96    -3178.063 
     600    468.75384   -145972.88            0   -144034.03   -4941.6873 
     700    497.72824    -146092.7            0      -144034    -2377.769 
     800    489.30492   -146057.87            0   -144034.01   -3815.5664 
     900    489.15957   -146057.23            0   -144033.97   -3246.4059 
    1000    483.21008   -146032.58            0   -144033.92    -3975.243 
    1100    489.05004   -146056.73            0   -144033.92   -3234.2777 
    1200    487.16786   -146048.95            0   -144033.93   -3356.7685 
    1300    490.17559   -146061.39            0   -144033.93   -3635.4242 
    1400    487.18953   -146049.03            0   -144033.92   -3698.9091 
    1500    489.82303   -146059.91            0   -144033.91   -3453.0551 
    1600    488.10638   -146052.79            0   -144033.88    -3335.295 
    1700     487.0066   -146048.27            0   -144033.92   -3558.0145 
    1800    488.04038    -146052.5            0   -144033.87   -3299.9296 
    1900    485.96427   -146043.89            0   -144033.85   -3401.5864 
    2000    486.84119   -146047.52            0   -144033.85   -3543.0232 
    2100    489.32829   -146057.78            0   -144033.82   -3083.5681 
    2200    484.31825   -146037.07            0   -144033.83   -3571.3163 
    2300    488.75658   -146055.41            0   -144033.82   -3079.4996 
    2400    485.26481   -146041.04            0   -144033.89    -3475.422 
    2500    488.69071   -146055.17            0   -144033.85   -3279.5293 
    2600    490.05164   -146060.81            0   -144033.86   -3117.6791 
    2700    482.51783    -146029.6            0   -144033.81   -3617.5041 
    2800    488.82903   -146055.75            0   -144033.86   -3125.9447 
    2900    486.22694   -146044.95            0   -144033.82   -3407.1747 
    3000    491.26435   -146065.85            0   -144033.88   -3592.4269 
    3100    489.55701   -146058.72            0   -144033.82   -3302.6997 
    3200    486.63948   -146046.63            0    -144033.8   -3329.7483 
    3300    489.11162   -146056.91            0   -144033.84   -3260.3876 
    3400    485.05905   -146040.12            0   -144033.83    -3539.203 
    3500    489.22704   -146057.38            0   -144033.84   -3038.1465 
    3600    487.37861   -146049.73            0   -144033.83   -3461.2605 
    3700    487.95476   -146052.05            0   -144033.78   -3405.3044 
    3800    488.52504   -146054.39            0   -144033.76   -2992.1726 
    3900    485.84018   -146043.33            0    -144033.8   -3547.4893 
    4000    488.62678   -146054.83            0   -144033.77   -3156.1252 
    4100     487.8389   -146051.56            0   -144033.76   -3305.1091 
    4200    484.45119   -146037.52            0   -144033.73    -3538.719 
    4300    490.60577   -146062.98            0   -144033.74   -3131.6329 
    4400    488.04493   -146052.34            0   -144033.69   -3420.1975 
    4500    490.58809   -146062.88            0   -144033.71   -3051.5811 
    4600    482.90374   -146031.04            0   -144033.65   -3415.1959 
    4700    489.14678   -146056.87            0   -144033.67   -3047.0333 
    4800    485.76958   -146042.88            0   -144033.64   -3413.3283 
    4900    489.34486   -146057.72            0    -144033.7    -3201.969 
    5000    489.65898   -146059.01            0   -144033.69   -2996.2343 
    5100    486.14033   -146044.41            0   -144033.63   -3377.4893 
    5200    491.69973   -146067.42            0   -144033.65   -2873.1177 
    5300    483.42435   -146033.26            0   -144033.73    -3595.592 
    5400    491.65292   -146067.25            0   -144033.68   -3001.6866 
    5500    487.34786    -146049.4            0   -144033.64   -3303.5425 
    5600    486.35561   -146045.28            0   -144033.62   -3180.8885 
    5700    488.79435   -146055.32            0   -144033.57   -3108.6597 
    5800    488.39837   -146053.59            0   -144033.48   -3245.9654 
    5900    489.09419   -146056.43            0   -144033.44   -3221.3649 
    6000    489.08613    -146056.4            0   -144033.44   -3041.6815 
    6100     485.2744   -146040.61            0   -144033.42   -3205.2175 
    6200     485.6649   -146042.24            0   -144033.43    -3278.494 
    6300    488.55963   -146054.21            0   -144033.43   -2948.6633 
    6400    486.04099    -146043.8            0   -144033.44   -3110.3029 
    6500    487.26173   -146048.84            0   -144033.43   -2971.1443 
    6600    483.82411   -146034.58            0   -144033.39   -3170.8194 
    6700    486.44003   -146045.45            0   -144033.44   -3118.7867 
    6800       488.81   -146055.26            0   -144033.45    -2901.008 
    6900    484.99683   -146039.42            0   -144033.38   -3031.6133 
    7000    488.13752    -146052.4            0   -144033.36    -2986.504 
    7100    485.93561   -146043.29            0   -144033.37    -3058.194 
    7200    490.55362   -146062.37            0   -144033.35    -2954.714 
    7300    484.49816   -146037.35            0   -144033.37   -3295.9934 
    7400    490.22959   -146061.07            0   -144033.38   -3005.0456 
    7500    486.17019   -146044.26            0   -144033.37   -3196.3606 
    7600    487.48994   -146049.73            0   -144033.37   -2981.9845 
    7700    488.76916   -146055.02            0   -144033.37   -3088.7461 
    7800    488.22617   -146052.77            0   -144033.38   -3152.0021 
    7900    487.81601   -146051.07            0   -144033.37   -3090.9028 
    8000    489.10624   -146056.44            0    -144033.4   -3097.0617 
    8100    489.75938    -146059.2            0   -144033.46   -3003.9042 
    8200     487.0841   -146048.13            0   -144033.46    -3294.143 
    8300     488.6353   -146054.54            0   -144033.45   -3081.0933 
    8400    487.02222   -146047.78            0   -144033.36   -2943.0494 
    8500    486.66031   -146046.33            0    -144033.4   -2924.6683 
    8600    485.97487   -146043.49            0   -144033.41   -3025.7022 
    8700    485.14907   -146040.11            0   -144033.44   -3147.7062 
    8800    489.80219   -146059.29            0   -144033.37   -2891.6582 
    8900    487.24979    -146048.7            0   -144033.34   -3289.1807 
    9000     489.1314   -146056.42            0   -144033.28   -2738.5554 
    9100    485.27022   -146040.45            0   -144033.28   -3230.1672 
    9200    490.00134   -146059.89            0   -144033.15   -2789.0342 
    9300    482.85448   -146030.27            0   -144033.09   -3303.2219 
    9400    487.87127   -146050.99            0   -144033.06   -2890.3811 
    9500    490.15038   -146060.45            0   -144033.09   -3074.4212 
    9600    485.74602   -146042.22            0   -144033.08   -3164.5861 
    9700    486.42145   -146045.02            0   -144033.08   -2925.0172 
    9800    489.01345   -146055.75            0   -144033.09   -3030.5335 
    9900    487.83539   -146050.84            0   -144033.05   -3048.1043 
   10000    485.93903   -146042.98            0   -144033.04   -3104.3622 
   10100    489.15795    -146056.3            0   -144033.04   -2955.6452 
   10200    487.35813   -146048.79            0   -144032.98   -3050.5547 
   10300     487.3362   -146048.66            0   -144032.94   -2756.6947 
   10400    486.69748   -146046.07            0      -144033   -3137.0513 
   10500    484.79857   -146038.25            0   -144033.03   -2871.8036 
   10600    488.66366   -146054.24            0   -144033.03   -2864.4838 
   10700     486.4698   -146045.16            0   -144033.02   -3035.7146 
   10800    488.00661   -146051.37            0   -144032.88   -2916.0472 
   10900    487.56971   -146049.55            0   -144032.86   -2960.4666 
   11000     486.6289   -146045.65            0   -144032.86   -3041.6294 
   11100    488.19427    -146052.1            0   -144032.84   -2883.8105 
   11200    487.45432      -146049            0   -144032.79    -3112.013 
   11300    489.50496    -146057.5            0   -144032.81   -2907.1391 
   11400    486.92034    -146046.8            0    -144032.8   -2970.2039 
   11500    486.12171   -146043.44            0   -144032.75   -2883.6928 
   11600     488.1254   -146051.73            0   -144032.75     -3036.08 
   11700    487.56349   -146049.43            0   -144032.77   -3086.8434 
   11800    490.49967    -146061.6            0    -144032.8   -2876.6237 
   11900    485.29666   -146040.06            0   -144032.78   -2975.9132 
   12000    485.42981    -146040.5            0   -144032.67   -2969.3544 
   12100    487.88761   -146050.66            0   -144032.67   -3010.1727 
   12200     488.0322   -146051.21            0   -144032.62    -2996.962 
   12300    486.61637   -146045.34            0    -144032.6   -3065.7865 
   12400    486.11687   -146043.23            0   -144032.56   -3046.9808 
   12500    486.61605   -146045.25            0   -144032.51   -2941.5623 
   12600    485.57895   -146040.97            0   -144032.52    -3055.403 
   12700    486.82481    -146046.1            0    -144032.5   -2766.4178 
   12800    489.57795   -146057.54            0   -144032.55   -3040.3726 
   12900    489.61259    -146057.7            0   -144032.57   -3013.3251 
   13000     486.1296   -146043.22            0    -144032.5   -3062.3556 
   13100    487.86193   -146050.35            0   -144032.46   -2910.0641 
   13200    488.42899   -146052.76            0   -144032.52    -3089.758 
   13300    485.28622   -146039.73            0   -144032.49   -3057.1878 
   13400    489.84039   -146058.56            0   -144032.48   -2806.5377 
   13500    487.62248   -146049.37            0   -144032.47   -3176.1264 
   13600    487.11903    -146047.2            0   -144032.38   -2724.2174 
   13700    487.24252   -146047.64            0   -144032.31   -3169.0232 
   13800    489.73325   -146057.96            0   -144032.32   -2829.0853 
   13900    489.63542   -146057.59            0   -144032.37   -2945.9959 
   14000    488.27949   -146051.95            0   -144032.33    -3109.313 
   14100    487.15504    -146047.3            0   -144032.33   -2949.7955 
   14200    489.79408    -146058.2            0   -144032.31   -2696.3209 
   14300    485.30834   -146039.61            0   -144032.28   -3050.7777 
   14400    486.86393   -146046.04            0   -144032.27   -2817.9895 
   14500    487.71257   -146049.52            0   -144032.25   -3100.2127 
   14600    490.19456   -146059.75            0   -144032.21   -2714.2368 
   14700    486.73055   -146045.41            0   -144032.19    -2971.892 
   14800    488.02245   -146050.68            0   -144032.12   -2995.4579 
   14900    487.95985   -146050.33            0   -144032.03   -2795.9514 
   15000    486.28595    -146043.4            0   -144032.03   -3111.1406 
   15100    485.09844    -146038.5            0   -144032.03   -2974.4125 
   15200    490.20247   -146059.62            0   -144032.05   -2875.9132 
   15300    486.21927   -146043.16            0   -144032.06   -2809.2932 
   15400    484.89249   -146037.67            0   -144032.06   -2862.4126 
   15500    487.19976   -146047.18            0   -144032.03   -2957.5446 
   15600    485.41909   -146039.93            0   -144032.14   -3080.1276 
   15700    490.79901   -146062.17            0   -144032.13   -2929.0173 
   15800    486.90735   -146046.07            0   -144032.13   -3035.0621 
   15900    487.10065   -146046.81            0   -144032.07   -2900.8991 
   16000    487.55423   -146048.68            0   -144032.06   -3050.1764 
   16100     487.7454   -146049.45            0   -144032.04   -3054.6764 
   16200    486.67372   -146045.03            0   -144032.05   -2884.3974 
   16300    486.34621   -146043.67            0   -144032.05   -2994.1956 
   16400    488.21178   -146051.31            0   -144031.97   -2818.0149 
   16500    484.44075   -146035.73            0   -144031.99    -3227.818 
   16600    490.95573   -146062.72            0   -144032.03    -2878.432 
   16700    487.98731   -146050.35            0   -144031.94   -3005.2577 
   16800     491.6365   -146065.47            0   -144031.97   -2885.5671 
   16900    485.29885    -146039.2            0   -144031.91   -3073.3909 
   17000     486.3191    -146043.4            0   -144031.88   -2909.3865 
   17100    486.62317   -146044.63            0   -144031.86   -3147.3739 
   17200    488.45991    -146052.3            0   -144031.94    -2958.341 
   17300    485.57366   -146040.34            0   -144031.91   -3109.6492 
   17400     486.6605   -146044.86            0   -144031.94   -2932.4945 
   17500    489.97176   -146058.48            0   -144031.86    -2868.409 
   17600    485.14303   -146038.47            0   -144031.83    -3078.288 
   17700    486.69721   -146044.92            0   -144031.85   -2987.8048 
   17800    489.58046   -146056.89            0   -144031.89   -2965.5677 
   17900    488.84759   -146053.87            0    -144031.9   -3147.3931 
   18000     485.1949   -146038.71            0   -144031.85    -2969.796 
   18100    487.66629   -146048.87            0   -144031.78   -2908.9986 
   18200    485.90389   -146041.52            0   -144031.73   -2979.9738 
   18300    489.11565   -146054.83            0   -144031.75   -2781.2061 
   18400    486.79381   -146045.19            0   -144031.72   -3144.8921 
   18500     488.5244   -146052.35            0   -144031.72   -2785.8951 
   18600    488.91446   -146053.91            0   -144031.67   -2911.0212 
   18700    487.83539   -146049.47            0   -144031.69   -2883.1691 
   18800    486.73012   -146044.92            0   -144031.71   -2937.5545 
   18900    488.29124   -146051.37            0    -144031.7   -2851.7896 
   19000    488.24187    -146051.1            0   -144031.64   -2886.0949 
   19100    486.46667   -146043.78            0   -144031.66   -2921.7175 
   19200    488.21562   -146051.02            0   -144031.67   -3006.7454 
   19300    489.61234   -146056.75            0   -144031.62   -2906.0096 
   19400    488.47795   -146052.05            0   -144031.61   -2891.6259 
   19500    484.81438   -146036.87            0   -144031.58   -3000.6623 
   19600    487.72219    -146048.9            0   -144031.58   -2908.6711 
   19700      489.906   -146057.93            0   -144031.58   -2796.1633 
   19800    488.44219   -146051.83            0   -144031.54   -3084.0648 
   19900    489.14206   -146054.72            0   -144031.53   -2796.2438 
   20000    486.61908   -146044.27            0   -144031.52   -3041.0438 
   20100    487.69112   -146048.67            0   -144031.49   -2756.9243 
   20200    487.16976    -146046.5            0   -144031.47   -2892.4096 
   20300    485.40635   -146039.19            0   -144031.45   -3062.3993 
   20400    490.14733   -146058.79            0   -144031.45   -2703.1057 
   20500    487.16829   -146046.49            0   -144031.47   -2972.3174 
   20600    488.24549   -146050.98            0    -144031.5   -2867.5755 
   20700    488.93832   -146053.87            0   -144031.53   -2935.3046 
   20800    488.02269   -146050.12            0   -144031.56   -2964.8182 
   20900     489.0939   -146054.53            0   -144031.55   -2747.9182 
   21000    486.10864   -146042.16            0   -144031.52   -3071.5532 
   21100    487.42369   -146047.51            0   -144031.43   -2878.4614 
   21200    485.62565      -146040            0   -144031.36    -2862.362 
   21300    489.13774   -146054.52            0   -144031.35   -2878.3132 
   21400    486.70828   -146044.51            0   -144031.38   -3059.4849 
   21500    486.58388   -146043.98            0   -144031.37   -2999.0081 
   21600    484.46675   -146035.14            0   -144031.29   -2729.2901 
   21700    487.42147   -146047.35            0   -144031.28   -2811.1141 
   21800    486.86218      -146045            0   -144031.24   -2892.4042 
   21900     488.6844    -146052.5            0   -144031.21   -2943.1039 
   22000    486.29432   -146042.61            0    -144031.2   -2752.2106 
   22100    488.78172   -146052.89            0    -144031.2   -2763.9118 
   22200    486.75134   -146044.44            0   -144031.14   -3138.7632 
   22300    488.48366   -146051.61            0   -144031.15   -2875.2261 
   22400    488.99328   -146053.77            0    -144031.2   -2782.4034 
   22500    486.53696    -146043.6            0   -144031.19   -3012.4575 
   22600    486.56788   -146043.74            0    -144031.2   -2962.3105 
   22700    488.92971   -146053.53            0   -144031.23   -2877.1911 
   22800    490.24128   -146058.92            0   -144031.18    -2870.911 
   22900    485.81615   -146040.54            0    -144031.1   -2979.9166 
   23000    489.31231   -146054.97            0   -144031.08   -2738.0462 
   23100    485.79041   -146040.31            0   -144030.99    -2980.221 
   23200    489.71532   -146056.54            0   -144030.98   -2709.4387 
   23300    487.40196   -146047.01            0   -144031.02   -2938.1653 
   23400    488.71653   -146052.41            0   -144030.99    -2889.445 
   23500    486.46091   -146043.07            0   -144030.98   -2784.0434 
   23600    487.57326   -146047.67            0   -144030.97   -2921.4697 
   23700    488.49869   -146051.44            0   -144030.91   -2780.7441 
   23800    486.06798   -146041.38            0   -144030.91    -3063.657 
   23900    486.36688   -146042.54            0   -144030.84   -2727.2453 
   24000    488.55569   -146051.64            0   -144030.88   -2891.6819 
   24100    486.40879   -146042.75            0   -144030.87   -2927.7189 
   24200     486.1629   -146041.67            0    -144030.8   -3023.7662 
   24300    487.72432   -146048.07            0   -144030.75   -2942.2842 
   24400     489.1467   -146053.97            0   -144030.76   -2837.1321 
   24500    486.42414    -146042.7            0   -144030.75   -3057.4303 
   24600    485.01826    -146036.9            0   -144030.77   -2886.2598 
   24700    488.49135   -146051.26            0   -144030.77   -2894.3081 
   24800    489.44141   -146055.22            0   -144030.79    -2861.515 
   24900    488.66335   -146051.97            0   -144030.77   -2926.3129 
   25000    486.97947   -146044.99            0   -144030.75   -3060.4546 
   25100    488.96698   -146053.17            0   -144030.71   -3027.4273 
   25200    487.15275    -146045.7            0   -144030.74    -2901.605 
   25300    488.05059   -146049.38            0   -144030.71    -3032.856 
   25400    487.18387   -146045.81            0   -144030.73   -3056.6116 
   25500    488.29782   -146050.43            0   -144030.74   -3029.8616 
   25600    486.32761   -146042.28            0   -144030.74   -2929.5961 
   25700    489.54204   -146055.54            0   -144030.69    -3041.269 
   25800    488.32621   -146050.51            0   -144030.69   -3080.0536 
   25900    487.91606   -146048.79            0   -144030.68   -2966.3942 
   26000    488.75516   -146052.28            0   -144030.69   -2980.8753 
   26100    486.64177   -146043.55            0    -144030.7   -2971.4747 
   26200    486.13556   -146041.44            0   -144030.69   -2974.9604 
   26300    486.30106   -146042.12            0   -144030.69   -3077.8435 
   26400    489.71705   -146056.25            0   -144030.68    -2831.715 
   26500    483.13029   -146028.93            0   -144030.61    -3173.973 
   26600    487.50711   -146047.08            0   -144030.65   -3013.4864 
   26700    490.98232   -146061.49            0    -144030.7   -2842.7474 
   26800    484.79345   -146035.76            0   -144030.56   -3168.9384 
   26900    488.00796   -146049.07            0   -144030.57   -2851.4844 
   27000    484.32648   -146033.82            0   -144030.55   -3153.3513 
   27100    488.67804   -146051.79            0   -144030.52   -2895.5825 
   27200    486.15187   -146041.32            0    -144030.5   -3161.3464 
   27300    486.28424   -146041.88            0   -144030.51   -3022.2699 
   27400    488.29286   -146050.18            0   -144030.51   -3225.1296 
   27500    486.55463   -146042.97            0   -144030.48   -2966.0496 
   27600    489.34735   -146054.52            0   -144030.49   -3133.2014 
   27700     488.4907   -146050.96            0   -144030.47   -3101.7329 
   27800    487.45866   -146046.67            0   -144030.44   -3162.6162 
   27900    487.84736   -146048.21            0   -144030.38   -3100.9671 
   28000    487.07269   -146044.93            0    -144030.3   -3054.5782 
   28100    487.81845   -146048.04            0   -144030.33   -2998.6537 
   28200    486.66567   -146043.34            0   -144030.39   -3146.3824 
   28300    489.11272    -146053.5            0   -144030.44   -3131.6683 
   28400    490.39393   -146058.82            0   -144030.46   -3050.0507 
   28500    484.97249   -146036.36            0   -144030.42   -3304.0731 
   28600     491.2054   -146062.18            0   -144030.45   -3208.2695 
   28700    488.61085   -146051.39            0    -144030.4   -3261.6419 
   28800    489.16826   -146053.64            0   -144030.34   -2997.3642 
   28900    489.46829   -146054.86            0   -144030.33   -3310.2084 
   29000    488.10203    -146049.2            0   -144030.31    -3267.486 
   29100    488.47713   -146050.77            0   -144030.33   -3108.9686 
   29200    489.55047   -146055.16            0   -144030.28   -3177.4541 
   29300    488.96275    -146052.7            0   -144030.26   -3076.4813 
   29400    485.83406   -146039.73            0   -144030.22   -3254.3186 
   29500    488.15721   -146049.29            0   -144030.18    -3117.238 
   29600    488.93507   -146052.45            0   -144030.11   -3011.2271 
   29700    484.27667   -146033.14            0   -144030.08   -3289.0788 
   29800    488.45206   -146050.42            0   -144030.09   -3112.3404 
   29900    486.41061   -146041.96            0   -144030.07   -3137.7561 
   30000    488.15643   -146049.16            0   -144030.05   -3141.1571 
   30100    487.69252   -146047.24            0   -144030.05   -3115.8228 
   30200    488.75732   -146051.61            0   -144030.02    -3322.525 
   30300    489.52495   -146054.79            0   -144030.02   -2999.6609 
   30400    488.99584   -146052.61            0   -144030.03   -3051.7545 
   30500    485.32773   -146037.38            0   -144029.97   -3205.6748 
   30600    490.03926   -146056.86            0   -144029.96   -3026.7432 
   30700    487.69696   -146047.14            0   -144029.93   -3098.6117 
   30800     490.1891   -146057.45            0   -144029.93   -3001.4901 
   30900    487.64078   -146046.88            0    -144029.9   -2941.2261 
   31000    486.21097   -146040.93            0   -144029.87   -3193.3964 
   31100     488.0045   -146048.35            0   -144029.86   -3063.9518 
   31200    488.51475   -146050.38            0   -144029.78   -3050.5314 
   31300    486.74453   -146043.06            0   -144029.79   -3179.5653 
   31400    489.44759   -146054.29            0   -144029.84   -3022.8011 
   31500    485.63686   -146038.46            0   -144029.77   -3169.1506 
   31600    488.72756   -146051.23            0   -144029.76   -3058.3899 
   31700    487.16786   -146044.77            0   -144029.75   -3141.8031 
   31800    486.52547   -146042.09            0   -144029.72   -3053.9763 
   31900    490.55022   -146058.78            0   -144029.77    -2810.401 
   32000    484.82437   -146035.09            0   -144029.76    -3241.446 
   32100    491.01668   -146060.69            0   -144029.75   -2933.7717 
   32200    490.23732   -146057.45            0   -144029.73   -2995.5004 
   32300    486.13022   -146040.39            0   -144029.66    -3174.379 
   32400    488.00311    -146048.2            0   -144029.73   -3167.1104 
   32500     489.6042   -146054.82            0   -144029.72   -2916.4824 
   32600    489.52702   -146054.53            0   -144029.75   -3130.7337 
   32700    487.64179   -146046.64            0   -144029.66   -3007.1423 
   32800    487.28047   -146045.11            0   -144029.62   -2989.4701 
   32900    489.45732   -146054.12            0   -144029.63   -2893.5225 
   33000     485.9178   -146039.52            0   -144029.67   -3159.4822 
   33100    485.33197   -146036.97            0   -144029.54   -3316.4495 
   33200    490.08971   -146056.59            0   -144029.48   -2837.4493 
   33300    486.14805   -146040.24            0   -144029.43     -3209.99 
   33400    492.27145   -146065.57            0   -144029.44   -3047.9808 
   33500    487.96423   -146047.75            0   -144029.43   -3280.4277 
   33600     487.9094   -146047.47            0   -144029.38   -3044.2714 
   33700     487.7964    -146046.9            0   -144029.28   -2985.6098 
   33800    486.53165    -146041.7            0   -144029.31   -3081.0367 
   33900    486.33568   -146040.89            0   -144029.31   -3036.2362 
   34000    485.66401   -146038.15            0   -144029.35   -3064.2299 
   34100    487.42806   -146045.43            0   -144029.33   -3048.4552 
   34200    484.88649   -146034.93            0   -144029.34   -3070.1345 
   34300    489.18113   -146052.73            0   -144029.38   -2994.7984 
   34400    489.12048   -146052.46            0   -144029.36   -3070.7325 
   34500    485.60717   -146037.91            0   -144029.35   -3114.5108 
   34600    488.56755   -146050.18            0   -144029.37   -3089.1875 
   34700    489.64006   -146054.57            0   -144029.32    -3147.974 
   34800    488.61253   -146050.34            0   -144029.34   -3164.9673 
   34900     489.4076   -146053.61            0   -144029.32   -2986.3039 
   35000    485.32261   -146036.71            0   -144029.32   -3262.3496 
   35100    487.48089   -146045.63            0   -144029.31   -2937.7783 
   35200    487.63813   -146046.27            0    -144029.3   -3143.0867 
   35300    489.89883   -146055.62            0    -144029.3   -2877.3097 
   35400    485.03326   -146035.51            0   -144029.32   -3282.5095 
   35500    487.67907   -146046.42            0   -144029.28   -3057.8388 
   35600    488.20276   -146048.57            0   -144029.26   -3096.9737 
   35700    487.93831   -146047.42            0   -144029.21   -3080.2397 
   35800    486.46485   -146041.31            0    -144029.2   -3070.9899 
   35900    490.90833   -146059.68            0   -144029.19   -3157.3356 
   36000    486.69448   -146042.18            0   -144029.12   -3275.7838 
   36100    488.39671   -146049.19            0   -144029.08    -2988.619 
   36200    487.45705    -146045.3            0   -144029.08   -3263.3588 
   36300    486.90454   -146043.03            0    -144029.1   -3066.8946 
   36400    488.11033   -146048.05            0   -144029.13    -3030.118 
   36500    485.21225   -146036.09            0   -144029.16   -3146.6521 
   36600    487.33426   -146044.93            0   -144029.22   -3018.7928 
   36700    487.68902   -146046.36            0   -144029.18   -3077.4869 
   36800    486.67297   -146042.13            0   -144029.15   -3048.2189 
   36900    486.76283   -146042.52            0   -144029.17   -3238.8009 
   37000     488.3031   -146048.81            0   -144029.09   -2892.9248 
   37100    487.76736   -146046.62            0   -144029.12   -3174.3443 
   37200    487.34261   -146044.86            0   -144029.12   -3007.3602 
   37300    486.76219   -146042.46            0   -144029.11   -3232.5905 
   37400     484.9492   -146034.89            0   -144029.04   -3014.9464 
   37500    487.41098   -146045.12            0   -144029.09    -3007.031 
   37600    488.81501   -146050.93            0    -144029.1   -3184.7656 
   37700    490.08418   -146056.19            0   -144029.11   -3089.3541 
   37800    489.84122   -146055.15            0   -144029.07   -3005.4782 
   37900    484.99101   -146035.07            0   -144029.06    -3095.163 
   38000    488.11856   -146047.99            0   -144029.03   -3043.4201 
   38100    488.31722    -146048.8            0   -144029.02   -3111.3112 
   38200    487.18481   -146044.11            0   -144029.02   -3180.9085 
   38300     485.6468   -146037.72            0   -144028.99   -3124.4397 
   38400    489.95828   -146055.54            0   -144028.97   -2991.6543 
   38500    486.66072   -146041.89            0   -144028.97   -3285.3529 
   38600    490.10122   -146056.14            0   -144028.98   -3020.4306 
   38700    487.43174    -146045.1            0   -144028.98   -3243.1745 
   38800     485.4778   -146036.96            0   -144028.93   -3168.4153 
   38900    488.18605   -146048.18            0   -144028.95     -3057.15 
   39000    490.23725   -146056.73            0   -144029.01   -3206.3488 
   39100    487.47106   -146045.23            0   -144028.95   -3122.2583 
   39200    487.41906   -146044.96            0    -144028.9   -3272.1638 
   39300    488.54605   -146049.61            0   -144028.89   -3019.6197 
   39400    486.39839   -146040.69            0   -144028.85   -3268.0805 
   39500    486.69921   -146041.94            0   -144028.86   -3224.1363 
   39600    488.39345   -146048.91            0   -144028.82   -3116.8948 
   39700    487.77967   -146046.36            0   -144028.81   -3162.1478 
   39800    489.51725   -146053.59            0   -144028.85   -3215.7265 
   39900    488.18046   -146048.06            0   -144028.85   -3144.7275 
   40000    489.66813   -146054.17            0   -144028.81   -3141.5429 
   40100    489.21036   -146052.25            0   -144028.78   -3242.6208 
   40200    487.30775    -146044.4            0    -144028.8     -3190.87 
   40300    486.63919   -146041.62            0   -144028.78   -3205.8448 
   40400    489.56625   -146053.75            0   -144028.81   -3153.5947 
   40500     488.2981   -146048.48            0   -144028.78   -3259.0265 
   40600    488.95172   -146051.14            0   -144028.74   -3022.3424 
   40700    487.87042   -146046.63            0   -144028.71   -3177.3459 
   40800    485.38731   -146036.33            0   -144028.68   -3069.1206 
   40900    487.25049   -146044.04            0   -144028.68   -3061.7459 
   41000    487.77698   -146046.25            0   -144028.71   -3260.2806 
   41100    488.75197   -146050.31            0   -144028.74   -2982.9981 
   41200     486.7701   -146042.06            0   -144028.69   -3287.4819 
   41300    486.82359   -146042.23            0   -144028.63   -3000.8231 
   41400    490.83807   -146058.89            0   -144028.69   -3066.8747 
   41500    489.11612   -146051.74            0   -144028.67   -3371.2721 
   41600    489.52315   -146053.36            0   -144028.59   -2902.2204 
   41700    485.53714   -146036.86            0   -144028.58   -3210.3755 
   41800     488.5123   -146049.18            0    -144028.6   -3063.3891 
   41900    486.28754   -146039.95            0   -144028.57   -3052.6954 
   42000    486.81608   -146042.13            0   -144028.56     -3135.34 
   42100    488.57594   -146049.42            0   -144028.57   -2986.4077 
   42200     489.6851   -146054.05            0   -144028.61   -3087.7648 
   42300    487.30969   -146044.24            0   -144028.64   -3109.6563 
   42400    487.49391   -146044.97            0    -144028.6   -2961.3211 
   42500     489.3772   -146052.79            0   -144028.63   -3259.8578 
   42600    486.54489   -146041.02            0   -144028.58   -3046.7351 
   42700    488.24267   -146048.07            0    -144028.6   -3004.2789 
   42800    487.55288   -146045.16            0   -144028.55   -3263.0125 
   42900    489.39127   -146052.77            0   -144028.55   -3021.2538 
   43000    489.73574    -146054.2            0   -144028.55    -3070.044 
   43100    488.86556    -146050.6            0   -144028.56   -3101.3052 
   43200     486.0525    -146038.9            0    -144028.5   -3100.8225 
   43300    485.10163   -146034.97            0    -144028.5   -3153.7333 
   43400    487.24529   -146043.81            0   -144028.47   -2866.3168 
   43500    485.37308    -146036.1            0    -144028.5   -3232.9492 
   43600    486.24017   -146039.66            0   -144028.48    -2987.804 
   43700    488.37059   -146048.51            0   -144028.52   -3135.4493 
   43800     491.5229   -146061.57            0   -144028.53   -2944.1258 
   43900     485.9831   -146038.64            0   -144028.52   -3329.7846 
   44000    493.24454   -146068.66            0    -144028.5   -2912.2996 
   44100    487.37997   -146044.33            0   -144028.44   -3139.2486 
   44200    489.11547   -146051.53            0   -144028.45   -2987.0595 
   44300    487.52661   -146044.96            0   -144028.45   -3040.7989 
   44400    488.20828   -146047.76            0   -144028.43   -3159.4937 
   44500    486.17279   -146039.35            0   -144028.44   -2937.8394 
   44600    487.95105   -146046.72            0   -144028.46   -3086.3876 
   44700    488.05845   -146047.14            0   -144028.44   -2958.2142 
   44800    490.03175   -146055.29            0   -144028.42   -3079.5725 
   44900    489.82354   -146054.39            0   -144028.39   -3002.6441 
   45000    486.59513   -146040.98            0   -144028.33   -3213.6789 
   45100    490.99607   -146059.17            0   -144028.32   -2924.7066 
   45200    487.06528    -146042.9            0   -144028.31   -3292.4747 
   45300    488.16003   -146047.44            0   -144028.31    -3127.509 
   45400    486.30154    -146039.7            0   -144028.26   -2907.6605 
   45500    487.57793      -146045            0   -144028.29   -2980.9584 
   45600    486.81301   -146041.82            0   -144028.27   -2957.2072 
   45700    484.58991   -146032.62            0   -144028.26   -3043.1539 
   45800    485.86135   -146037.86            0   -144028.24     -3061.42 
   45900     488.6611   -146049.45            0   -144028.25   -3013.8058 
   46000    488.22271   -146047.67            0   -144028.29   -3181.5585 
   46100     490.8752   -146058.63            0   -144028.28   -2961.0498 
   46200    488.33195   -146048.09            0   -144028.26   -3237.5434 
   46300    485.36214   -146035.77            0   -144028.22   -3091.3756 
   46400    488.34862    -146048.1            0    -144028.2   -2941.2648 
   46500    488.03091    -146046.8            0    -144028.2   -3228.9463 
   46600    491.13517    -146059.6            0   -144028.17   -2992.8194 
   46700    487.82995   -146045.94            0   -144028.18   -3065.1635 
   46800    487.63117   -146045.15            0   -144028.21   -3161.8141 
   46900    486.87716   -146042.03            0   -144028.21   -2792.1314 
   47000    487.80166   -146045.89            0   -144028.24   -3166.6238 
   47100      491.487   -146061.14            0   -144028.26   -2902.5897 
   47200     487.7332    -146045.6            0   -144028.24   -3081.9004 
   47300    487.09076    -146042.9            0    -144028.2   -3040.2802 
   47400    487.99877   -146046.63            0   -144028.17   -3164.8885 
   47500    489.46107   -146052.63            0   -144028.13   -3001.7983 
   47600    488.16257   -146047.26            0   -144028.12   -3011.9503 
   47700    490.38153   -146056.47            0   -144028.16   -3100.4485 
   47800    490.07953   -146055.23            0   -144028.17   -3097.9136 
   47900    487.50776    -146044.6            0   -144028.17   -2902.1861 
   48000    485.79855   -146037.51            0   -144028.15   -3051.9157 
   48100     491.1538   -146059.69            0   -144028.18   -3110.4515 
   48200    487.77526   -146045.66            0   -144028.13   -3068.5741 
   48300    490.02104   -146054.93            0    -144028.1    -3055.249 
   48400    488.28181   -146047.67            0   -144028.05   -3137.4305 
   48500    487.46052   -146044.27            0   -144028.04   -3067.3233 
   48600    489.05252   -146050.87            0   -144028.06   -3009.5574 
   48700    485.30265   -146035.32            0   -144028.01   -3102.7589 
   48800    487.97942    -146046.4            0   -144028.03   -2910.2017 
   48900    486.21931    -146039.1            0   -144028.01   -3177.1327 
   49000    491.39699   -146060.54            0   -144028.03   -2969.3519 
   49100    488.86353   -146050.01            0   -144027.97   -3148.1226 
   49200    487.68649   -146045.12            0   -144027.95   -2999.3678 
   49300    488.05322   -146046.66            0   -144027.98   -2960.6171 
   49400    485.21153   -146034.88            0   -144027.96    -3109.286 
   49500    487.99563   -146046.42            0   -144027.98   -3168.7375 
   49600    487.89533   -146046.02            0   -144027.99   -3100.9672 
   49700      490.472   -146056.68            0   -144027.99   -3009.8955 
   49800    487.51381   -146044.43            0   -144027.98    -3108.098 
   49900    488.07404   -146046.71            0   -144027.94   -2909.0103 
   50000    487.36807   -146043.77            0   -144027.92   -2925.6986 
   50100    487.30121   -146043.45            0   -144027.88    -3033.282 
   50200    488.47672    -146048.3            0   -144027.86   -2953.1506 
   50300    488.62408   -146048.88            0   -144027.83   -3126.5219 
   50400    489.47674    -146052.4            0   -144027.83   -2878.4513 
   50500    487.08882   -146042.51            0   -144027.81   -3205.8543 
   50600    490.83052   -146057.99            0   -144027.82   -2771.3364 
   50700    487.57007   -146044.45            0   -144027.77   -3328.2161 
   50800     488.5822    -146048.6            0   -144027.72   -2996.7146 
   50900    489.25816   -146051.43            0   -144027.76   -3091.4068 
   51000     486.9021    -146041.7            0   -144027.78   -3226.2865 
   51100    487.22268   -146042.99            0   -144027.74   -2981.8824 
   51200     489.0276   -146050.44            0   -144027.73   -2949.0162 
   51300    488.39299    -146047.8            0   -144027.71   -3009.6406 
   51400    486.63052    -146040.5            0    -144027.7   -3007.3653 
   51500    489.46073   -146052.22            0   -144027.71   -3113.0349 
   51600    489.65809   -146053.03            0   -144027.71    -2934.655 
   51700    486.95328   -146041.85            0   -144027.72   -3153.7272 
   51800    490.67292   -146057.22            0    -144027.7    -3023.651 
   51900     486.8399   -146041.37            0   -144027.71   -3043.2592 
   52000     491.0622   -146058.84            0   -144027.71   -2984.2379 
   52100    485.63699   -146036.36            0   -144027.67   -3286.6443 
   52200    489.27954    -146051.4            0   -144027.65   -2893.8934 
   52300    487.58432   -146044.37            0   -144027.63   -3116.6861 
   52400    487.57347   -146044.34            0   -144027.64   -3106.8206 
   52500    488.04152   -146046.24            0   -144027.61    -2978.296 
   52600    486.95064   -146041.72            0    -144027.6   -3074.5022 
   52700     489.7985   -146053.52            0   -144027.62   -3123.1829 
   52800    487.84005   -146045.39            0   -144027.59   -3119.6099 
   52900    488.73296   -146049.12            0   -144027.62   -3084.9008 
   53000    487.13106   -146042.46            0   -144027.59   -3069.3116 
   53100    487.38243   -146043.52            0   -144027.61   -2960.1745 
   53200    486.08688   -146038.13            0   -144027.58   -3108.2286 
   53300    486.88706   -146041.43            0   -144027.57   -3017.6128 
   53400    487.72172    -146044.9            0   -144027.59   -3117.3857 
   53500    489.96054   -146054.11            0   -144027.53    -2994.964 
   53600    492.38107   -146064.16            0   -144027.58   -3100.1882 
   53700    488.14061   -146046.61            0   -144027.57   -3102.3372 
   53800    489.32699   -146051.53            0   -144027.58    -3019.285 
   53900    486.61979   -146040.31            0   -144027.55   -3183.5108 
   54000    487.33174   -146043.24            0   -144027.54   -3080.3425 
   54100    490.69128   -146057.15            0   -144027.55    -3113.605 
   54200    490.63258    -146056.9            0   -144027.55   -3040.2429 
   54300    486.45523   -146039.59            0   -144027.52   -3029.6533 
   54400    487.16345   -146042.52            0   -144027.52   -3207.7476 
   54500    491.91163   -146062.22            0   -144027.57   -2985.5231 
   54600    485.20014   -146034.43            0   -144027.55   -3186.0338 
   54700    486.01096   -146037.78            0   -144027.54   -3120.7819 
   54800    490.24181   -146055.33            0   -144027.59   -3021.4008 
   54900    487.77549   -146045.11            0   -144027.58   -3096.8191 
   55000    487.06442   -146042.15            0   -144027.56   -3248.3441 
   55100    487.29122   -146043.11            0   -144027.58   -3132.9197 
   55200    489.35701   -146051.67            0    -144027.6    -3061.821 
   55300    488.73303   -146049.07            0   -144027.57   -3174.3862 
   55400    488.77157   -146049.21            0   -144027.56   -2943.8884 
   55500    485.38752   -146035.26            0    -144027.6   -3219.3039 
   55600     490.3503   -146055.77            0   -144027.58    -2881.851 
   55700    487.57708    -146044.3            0   -144027.59    -3172.328 
   55800    491.20874   -146059.32            0   -144027.58   -2898.8913 
   55900     485.7616   -146036.76            0   -144027.56   -3239.8241 
   56000    489.92904   -146054.01            0   -144027.56   -2938.6302 
   56100    488.12667   -146046.53            0   -144027.54   -3086.0413 
   56200     487.6472   -146044.53            0   -144027.52   -3105.9827 
   56300    487.08609   -146042.19            0   -144027.51   -2949.1717 
   56400    485.96438   -146037.54            0   -144027.49   -3154.4654 
   56500    488.61905   -146048.54            0   -144027.52   -3039.3152 
   56600    486.66078   -146040.43            0    -144027.5   -3099.8657 
   56700    486.81007   -146041.02            0   -144027.48   -2967.9133 
   56800    486.86914   -146041.27            0   -144027.48   -3209.7421 
   56900    487.34395   -146043.22            0   -144027.47   -3085.1542 
   57000    487.86287   -146045.36            0   -144027.47   -3137.0191 
   57100    488.85882    -146049.5            0   -144027.49   -3058.0622 
   57200    487.48545   -146043.84            0    -144027.5   -3233.1188 
   57300    486.25133   -146038.71            0   -144027.48   -3196.2988 
   57400    489.45342   -146051.96            0   -144027.48   -2982.5872 
   57500    489.59439   -146052.51            0   -144027.45   -3058.7068 
   57600    485.26226   -146034.54            0    -144027.4   -3120.2316 
   57700    488.15188   -146046.47            0   -144027.38   -2988.2316 
   57800    486.97988   -146041.59            0   -144027.35    -3164.808 
   57900    486.37291      -146039            0   -144027.27   -3192.2719 
   58000    487.37202    -146043.1            0   -144027.23   -3202.5605 
   58100    486.50045   -146039.46            0    -144027.2   -3128.7225 
   58200    486.36595    -146038.9            0    -144027.2   -3153.8264 
   58300    488.48794   -146047.69            0   -144027.21     -3166.71 
   58400    489.51809   -146051.97            0   -144027.23   -3221.2131 
   58500     486.4913   -146039.42            0    -144027.2   -3359.9057 
   58600    490.13752   -146054.49            0   -144027.19   -2947.1535 
   58700    484.99952    -146033.2            0   -144027.15   -3182.8458 
   58800    487.24419   -146042.52            0   -144027.18   -3187.8568 
   58900    490.16685   -146054.59            0   -144027.16   -2961.2397 
   59000    486.39226   -146038.95            0   -144027.14   -3339.7143 
   59100     489.9514   -146053.65            0   -144027.11   -2924.1106 
   59200    487.26813   -146042.48            0   -144027.05   -3193.0845 
   59300    490.75357   -146056.84            0   -144026.99   -3029.1722 
   59400    487.04147   -146041.44            0   -144026.94   -3077.2985 
   59500    486.05489   -146037.35            0   -144026.94   -3124.6159 
   59600    487.83962   -146044.74            0   -144026.94   -2971.6711 
   59700    485.48293      -146035            0   -144026.94   -3252.6297 
   59800    489.15137   -146050.19            0   -144026.97   -3053.2249 
   59900     486.7202   -146040.09            0   -144026.92    -3051.335 
   60000    485.25127   -146033.96            0   -144026.86   -3243.0828 
   60100    489.25439    -146050.5            0   -144026.85   -3131.4438 
   60200    488.30108    -146046.6            0   -144026.89   -3054.8614 
   60300    489.36538   -146050.98            0   -144026.87   -3080.0086 
   60400    487.65442   -146043.87            0   -144026.84   -3017.7076 
   60500    485.45466   -146034.76            0   -144026.82   -3164.7118 
   60600    489.21196    -146050.3            0   -144026.82   -2975.6652 
   60700    490.31595   -146054.81            0   -144026.77   -2932.7211 
   60800    484.99432   -146032.82            0   -144026.79   -3319.4111 
   60900     489.9263   -146053.22            0   -144026.79   -2888.7716 
   61000    487.81116   -146044.48            0    -144026.8    -3093.393 
   61100    487.48194   -146043.13            0   -144026.81   -3189.6368 
   61200     486.4252   -146038.77            0   -144026.82   -3048.4622 
   61300    486.50133   -146039.11            0   -144026.84   -3121.1567 
   61400    488.17911   -146046.01            0   -144026.81   -2964.8586 
   61500    487.36871   -146042.68            0   -144026.83   -3192.6383 
   61600    489.96294   -146053.42            0   -144026.84   -3137.0282 
   61700    489.86316   -146053.02            0   -144026.85   -3085.2824 
   61800    486.31457   -146038.32            0   -144026.83    -3157.869 
   61900    488.48494   -146047.31            0   -144026.84   -2967.6562 
   62000    492.01046   -146061.88            0   -144026.83   -2948.4575 
   62100    486.40795   -146038.68            0    -144026.8   -3154.0299 
   62200    489.13194   -146049.98            0   -144026.84     -3246.39 
   62300     490.1336   -146054.12            0   -144026.83   -2885.3396 
   62400    488.16788   -146045.99            0   -144026.83   -3128.2651 
   62500    487.72682   -146044.15            0   -144026.82   -3049.7847 
   62600      489.367   -146050.93            0   -144026.81   -3072.3469 
   62700    490.51389   -146055.65            0   -144026.79   -2949.9223 
   62800    487.07221   -146041.35            0   -144026.73   -3109.6155 
   62900    490.79497    -146056.8            0   -144026.78   -2883.5049 
   63000    488.75709    -146048.4            0   -144026.81   -2948.3526 
   63100    487.37082   -146042.64            0   -144026.77   -3108.2685 
   63200     490.1079   -146053.95            0   -144026.76   -2955.1901 
   63300    486.91906   -146040.74            0   -144026.75   -2836.2059 
   63400    485.00784   -146032.85            0   -144026.76   -2900.1252 
   63500    485.88353   -146036.49            0   -144026.79   -3021.3157 
   63600    487.80392   -146044.47            0   -144026.82   -2917.5278 
   63700    487.85911   -146044.69            0   -144026.81   -3018.5222 
   63800    488.97259    -146049.3            0   -144026.82   -3079.0744 
   63900    487.84967   -146044.63            0   -144026.79   -3002.5359 
   64000    489.76297   -146052.54            0   -144026.79   -2946.1467 
   64100    487.27041   -146042.25            0    -144026.8   -2944.8474 
   64200    487.24099   -146042.11            0   -144026.79   -3003.8809 
   64300    488.90565   -146049.01            0    -144026.8   -3144.4174 
   64400    488.01512   -146045.33            0   -144026.81   -2916.9586 
   64500     486.9759   -146041.02            0   -144026.79   -3049.0669 
   64600    488.59534   -146047.75            0   -144026.83   -3004.0447 
   64700    490.90437    -146057.3            0   -144026.82   -3019.0227 
   64800    489.71285   -146052.36            0   -144026.81   -3029.7911 
   64900    489.86255   -146053.01            0   -144026.84   -2904.3935 
   65000    489.67827   -146052.28            0   -144026.87   -3064.7257 
   65100    489.65923   -146052.16            0   -144026.83   -2962.9399 
   65200    489.67976   -146052.24            0   -144026.83    -2984.186 
   65300    490.05104   -146053.79            0   -144026.84   -3071.3133 
   65400    487.35178   -146042.61            0   -144026.82   -2917.9831 
   65500    491.16018   -146058.39            0   -144026.85   -3080.8943 
   65600    486.23868   -146037.99            0   -144026.82   -2919.4301 
   65700    488.22701   -146046.23            0   -144026.83   -3073.0102 
   65800    488.79526   -146048.57            0   -144026.82   -3044.0618 
   65900    486.67592   -146039.77            0   -144026.79   -2926.8076 
   66000    484.68737   -146031.52            0   -144026.76   -2926.5017 
   66100    489.36228   -146050.87            0   -144026.78   -2945.3923 
   66200    483.90171   -146028.27            0   -144026.76    -3077.429 
   66300    490.47804   -146055.51            0   -144026.79   -2865.1145 
   66400     486.8283   -146040.39            0   -144026.77   -3115.0013 
   66500    485.29085   -146034.01            0   -144026.75   -3083.7194 
   66600    489.82796   -146052.78            0   -144026.75   -2752.1311 
   66700    486.87428   -146040.54            0   -144026.73   -3075.5251 
   66800    489.64966   -146052.06            0   -144026.77   -3032.8079 
   66900    487.04655   -146041.27            0   -144026.75   -3110.6295 
   67000    485.93845   -146036.68            0   -144026.74   -2923.0247 
   67100    486.31045   -146038.21            0   -144026.73   -2912.3805 
   67200    487.53775   -146043.28            0   -144026.73   -3050.9075 
   67300    489.43813   -146051.16            0   -144026.75     -2874.37 
   67400    485.74293   -146035.84            0   -144026.71   -3105.0556 
   67500    490.46578   -146055.39            0   -144026.73   -2942.1869 
   67600     487.0157   -146041.09            0   -144026.69   -3202.3627 
   67700    490.54245   -146055.65            0   -144026.67   -2914.2067 
   67800    487.92953   -146044.84            0   -144026.67   -3133.4138 
   67900    486.69299   -146039.73            0   -144026.67     -3075.98 
   68000    487.18951   -146041.74            0   -144026.63   -2927.0657 
   68100    485.90489   -146036.42            0   -144026.62   -3057.9989 
   68200    488.26702   -146046.19            0   -144026.62   -2988.5013 
   68300    486.13281   -146037.36            0   -144026.62   -3004.0667 
   68400    487.16838   -146041.65            0   -144026.63   -2994.3281 
   68500      487.912   -146044.74            0   -144026.64   -3081.8367 
   68600    491.11352   -146058.01            0   -144026.67   -3194.6585 
   68700    487.61766   -146043.55            0   -144026.66   -3074.7486 
   68800    487.48254   -146043.01            0   -144026.69   -3163.7049 
   68900    489.65542   -146051.95            0   -144026.64    -2995.649 
   69000    487.44409   -146042.81            0   -144026.64   -3203.8212 
   69100    489.76142   -146052.39            0   -144026.64      -3101.9 
   69200     487.8764   -146044.58            0   -144026.62   -3086.0022 
   69300    489.04974   -146049.41            0    -144026.6   -3159.8467 
   69400    487.10587   -146041.37            0    -144026.6    -3011.309 
   69500    487.45831   -146042.83            0   -144026.61    -3147.409 
   69600    489.91929   -146053.02            0   -144026.61   -3005.6241 
   69700    487.52324    -146043.1            0   -144026.61   -3196.1067 
   69800    491.73031   -146060.51            0   -144026.62   -3055.3339 
   69900    488.29495   -146046.27            0   -144026.58   -3309.3449 
   70000    490.46862   -146055.24            0   -144026.56   -3006.8084 
   70100    488.16145   -146045.69            0   -144026.56   -3277.9851 
   70200    490.47846   -146055.25            0   -144026.53   -2976.4117 
   70300    488.95687   -146048.97            0   -144026.54   -3011.1514 
   70400    487.71393   -146043.77            0   -144026.49   -2960.7112 
   70500    488.39403   -146046.58            0   -144026.48   -3165.6631 
   70600     487.7446   -146043.86            0   -144026.45   -3026.5594 
   70700    486.25167   -146037.68            0   -144026.44   -3205.2016 
   70800    490.25279   -146054.27            0   -144026.49   -2992.0992 
   70900    487.07468   -146041.17            0   -144026.54   -3054.3661 
   71000    487.89594   -146044.56            0   -144026.52   -3103.9966 
   71100    489.66512   -146051.87            0   -144026.52   -2988.4622 
   71200    486.16359   -146037.36            0   -144026.49   -3074.6338 
   71300    490.04845   -146053.44            0   -144026.51   -3100.6805 
   71400    487.09834   -146041.22            0   -144026.48   -3025.3127 
   71500    485.81689   -146035.91            0   -144026.48    -3179.031 
   71600    491.11035   -146057.81            0   -144026.48   -2870.0799 
   71700    485.76132    -146035.7            0   -144026.49   -3145.0595 
   71800    487.91677   -146044.61            0   -144026.49   -2978.6242 
   71900    488.14599   -146045.56            0    -144026.5   -3124.1901 
   72000    490.52469   -146055.39            0   -144026.48   -3189.4438 
   72100     489.6641   -146051.79            0   -144026.44   -3024.7275 
   72200    486.99964   -146040.74            0   -144026.41   -3151.1306 
   72300    490.79212   -146056.39            0   -144026.38   -2999.0288 
   72400     487.4727   -146042.65            0   -144026.37   -3104.3108 
   72500    487.26978   -146041.76            0   -144026.31   -3044.4599 
   72600    487.53786   -146042.85            0   -144026.29    -3025.467 
   72700    487.94977   -146044.55            0    -144026.3   -3138.5731 
   72800    493.63649   -146068.13            0   -144026.35   -3162.8865 
   72900    488.08287   -146045.14            0   -144026.33   -3117.9939 
   73000    486.92349   -146040.34            0   -144026.33   -3104.9477 
   73100    488.69306   -146047.66            0   -144026.33   -3082.2881 
   73200     489.1859   -146049.68            0   -144026.31    -3142.201 
   73300    488.61958   -146047.38            0   -144026.35   -3017.7714 
   73400    487.59899   -146043.17            0   -144026.37   -3097.2983 
   73500    487.58455   -146043.12            0   -144026.37   -3055.5209 
   73600    488.16987   -146045.53            0   -144026.36   -3068.7707 
   73700     489.8078   -146052.29            0   -144026.35   -2950.9624 
   73800    484.91572   -146032.05            0   -144026.34   -3301.5958 
   73900    490.36146   -146054.61            0   -144026.38   -2982.1473 
   74000    487.96233   -146044.68            0   -144026.37    -2831.296 
   74100    483.90795    -146027.9            0   -144026.36   -3334.5429 
   74200    487.68633   -146043.51            0   -144026.34   -2797.6449 
   74300    487.27681   -146041.87            0   -144026.39   -3222.8938 
   74400    492.13562   -146061.97            0    -144026.4   -2915.7258 
   74500    488.44702   -146046.71            0    -144026.4   -3227.1171 
   74600    490.77578   -146056.32            0   -144026.38   -3038.1165 
   74700    487.25739   -146041.73            0   -144026.34   -3097.1126 
   74800    486.91071    -146040.3            0   -144026.34   -2974.5405 
   74900    486.44126   -146038.35            0   -144026.34   -3256.5335 
   75000     489.0463   -146049.16            0   -144026.37   -2917.4895 
   75100    489.73091   -146051.99            0   -144026.37   -3135.2782 
   75200     490.4391   -146054.91            0   -144026.36   -3222.7376 
   75300     489.4645   -146050.86            0   -144026.34   -2997.6099 
   75400    487.90486   -146044.41            0   -144026.34   -3169.7925 
   75500    489.41499   -146050.61            0   -144026.29    -3079.131 
   75600    485.81285   -146035.72            0    -144026.3   -3210.4917 
   75700    485.49206   -146034.36            0   -144026.27   -2925.1784 
   75800    486.65698   -146039.18            0   -144026.27   -2976.6302 
   75900    488.50219   -146046.79            0   -144026.25   -3190.1587 
   76000    489.31785   -146050.15            0   -144026.23   -3082.0048 
   76100    487.92448   -146044.36            0   -144026.21   -3134.3098 
   76200    488.68525    -146047.5            0   -144026.21   -3139.4985 
   76300    488.85737   -146048.27            0   -144026.26   -3191.2325 
   76400    486.84387    -146039.9            0   -144026.22   -3024.2167 
   76500    489.98478   -146052.92            0   -144026.25   -3058.9841 
   76600    488.58064   -146047.09            0   -144026.23   -3175.3348 
   76700    487.43677   -146042.37            0   -144026.23    -3124.667 
   76800    490.74076   -146056.05            0   -144026.26   -3132.9487 
   76900    487.48496   -146042.58            0   -144026.24   -3203.8816 
   77000    487.81379   -146043.94            0   -144026.24   -3082.5931 
   77100    488.55351      -146047            0   -144026.25   -3165.0251 
   77200    485.91657   -146036.07            0   -144026.22   -3032.0488 
   77300    487.50748   -146042.65            0   -144026.22   -3112.2637 
   77400    487.91755   -146044.37            0   -144026.25   -3031.4023 
   77500    488.15493   -146045.36            0   -144026.25   -3022.5131 
   77600    488.10351   -146045.16            0   -144026.27   -3148.3597 
   77700    484.50069   -146030.24            0   -144026.25    -3104.297 
   77800     489.7799   -146052.04            0   -144026.22   -3089.4581 
   77900    486.98533   -146040.47            0   -144026.21   -3190.3464 
   78000    488.98521   -146048.74            0    -144026.2   -3083.1945 
   78100     489.1177   -146049.31            0   -144026.22   -3151.8822 
   78200    488.31335   -146045.96            0    -144026.2   -3085.5335 
   78300    489.89745   -146052.53            0   -144026.21   -3105.9757 
   78400    486.17304   -146037.06            0   -144026.15   -3066.7516 
   78500    487.08121   -146040.77            0    -144026.1   -3180.6911 
   78600     489.2328   -146049.69            0   -144026.12   -3001.1848 
   78700    490.50686      -146055            0   -144026.16   -3037.2128 
   78800    484.85063   -146031.57            0   -144026.13   -3214.8801 
   78900    488.35095   -146046.06            0   -144026.15   -2948.2936 
   79000    487.00752   -146040.47            0   -144026.11    -3194.158 
   79100    489.35575   -146050.18            0   -144026.11   -3005.4553 
   79200    488.09555   -146044.94            0   -144026.08    -3140.427 
   79300    487.68348   -146043.19            0   -144026.04   -2992.3155 
   79400    487.44885   -146042.22            0   -144026.03   -3108.4164 
   79500    488.45828   -146046.37            0   -144026.02   -3006.5714 
   79600    487.36522   -146041.84            0      -144026   -3107.0015 
   79700    489.27747   -146049.78            0   -144026.04   -3147.6554 
   79800    490.02189   -146052.84            0   -144026.01   -3139.0747 
   79900    487.28619   -146041.51            0      -144026   -3100.1246 
   80000    490.02638   -146052.87            0   -144026.02   -3090.8228 
   80100    486.71416   -146039.13            0   -144025.99   -3201.1949 
   80200    489.55083   -146050.89            0   -144026.01   -3095.0346 
   80300    489.41402   -146050.34            0   -144026.03   -3131.1432 
   80400    487.63286      -146043            0   -144026.05     -3280.88 
   80500    488.87601   -146048.11            0   -144026.02   -3089.0032 
   80600    488.50877   -146046.57            0      -144026   -3211.5365 
   80700    490.91265   -146056.53            0   -144026.02   -3207.5426 
   80800    488.88805   -146048.16            0   -144026.03   -3107.4699 
   80900    490.17617   -146053.47            0   -144026.01    -3041.701 
   81000    488.55696   -146046.76            0   -144025.99   -3170.8083 
   81100    489.00908   -146048.64            0      -144026   -3139.5784 
   81200    488.05902   -146044.72            0   -144026.01   -3179.6975 
   81300    488.02427   -146044.57            0   -144026.01    -3210.033 
   81400    489.23895   -146049.59            0      -144026   -3143.1753 
   81500    488.70527   -146047.38            0      -144026   -3085.2478 
   81600    489.48489   -146050.61            0      -144026   -3107.9711 
   81700    489.60635   -146051.14            0   -144026.03   -3140.2108 
   81800    488.41711   -146046.23            0   -144026.04   -3266.6552 
   81900    491.72574   -146059.92            0   -144026.05   -3016.9286 
   82000    488.12258   -146045.02            0   -144026.05   -3284.7072 
   82100    486.67021      -146039            0   -144026.04   -2975.0669 
   82200    488.81858   -146047.91            0   -144026.06   -3140.5576 
   82300    486.92755   -146040.07            0   -144026.05   -3078.2154 
   82400    488.10777   -146044.96            0   -144026.05   -3243.1882 
   82500    489.75763   -146051.77            0   -144026.04   -3064.2904 
   82600    488.74237   -146047.57            0   -144026.04    -3173.391 
   82700    488.17157   -146045.19            0   -144026.01   -3132.6854 
   82800    485.04927   -146032.25            0   -144025.99   -3166.9702 
   82900    489.11989   -146049.08            0   -144025.99   -3099.2183 
   83000    490.09699   -146053.11            0   -144025.98   -2956.5631 
   83100    488.49487   -146046.51            0      -144026   -3325.8489 
   83200    489.47133   -146050.52            0   -144025.97   -3021.0166 
   83300     490.0578   -146052.95            0   -144025.98   -3095.0694 
   83400    486.02402    -146036.3            0   -144026.01   -2957.9706 
   83500    489.46637   -146050.55            0   -144026.02   -3083.8475 
   83600    488.43573   -146046.29            0   -144026.03   -3088.0562 
   83700    490.54385      -146055            0   -144026.01   -2896.7923 
   83800     488.1162   -146044.97            0   -144026.03   -3263.9598 
   83900    487.27963   -146041.47            0   -144025.98   -2907.0105 
   84000    485.17376   -146032.79            0   -144026.02   -3208.2493 
   84100    491.08235   -146057.24            0   -144026.02   -2992.9316 
   84200    489.30725   -146049.83            0   -144025.96   -2940.6581 
   84300    483.97337   -146027.74            0   -144025.93    -3179.398 
   84400    488.93883   -146048.27            0   -144025.93   -2840.2495 
   84500    486.72751   -146039.16            0   -144025.96   -3122.0022 
   84600    488.02563   -146044.53            0   -144025.96   -3004.7287 
   84700    489.06748   -146048.83            0   -144025.95   -2926.9337 
   84800    487.34889   -146041.72            0   -144025.95   -3186.7725 
   84900    492.66279    -146063.7            0   -144025.95   -2904.6424 
   85000    487.84577   -146043.77            0   -144025.95   -3283.8653 
   85100    487.83186   -146043.71            0   -144025.94   -3018.0155 
   85200    486.21541   -146037.01            0   -144025.93    -2971.918 
   85300    490.35867   -146054.19            0   -144025.97   -3043.5594 
   85400     487.4533   -146042.16            0   -144025.95   -3093.4392 
   85500    488.85255   -146047.97            0   -144025.98   -3021.6899 
   85600    492.40026   -146062.67            0      -144026   -2986.2498 
   85700     488.5886   -146046.87            0   -144025.97   -3006.0659 
   85800    486.30788   -146037.45            0   -144025.98   -3220.7972 
   85900    488.77913   -146047.64            0   -144025.95   -2910.6062 
   86000    490.73617   -146055.75            0   -144025.97   -3061.7231 
   86100    487.22733   -146041.22            0   -144025.95   -3106.2809 
   86200    489.19962   -146049.41            0   -144025.98   -3031.8758 
   86300    489.16436    -146049.2            0   -144025.92   -2927.4241 
   86400    488.40134   -146046.03            0   -144025.91   -2920.2654 
   86500    486.72834   -146039.13            0   -144025.93    -3079.261 
   86600    489.39591   -146050.19            0   -144025.95     -2875.19 
   86700    487.68435   -146043.07            0   -144025.91   -2986.6855 
   86800    491.31728   -146058.14            0   -144025.95   -2980.9084 
   86900    486.73178   -146039.18            0   -144025.96   -3122.1848 
   87000    488.22199   -146045.28            0    -144025.9   -3020.2683 
   87100    488.42426   -146046.06            0   -144025.84   -2874.1601 
   87200    487.60293   -146042.64            0   -144025.82   -3157.1181 
   87300    489.87195   -146052.01            0    -144025.8   -2834.1219 
   87400    484.38332   -146029.33            0   -144025.82   -3150.1258 
   87500    489.86052   -146051.96            0    -144025.8   -2966.5639 
   87600    486.94265   -146039.85            0   -144025.76   -3017.7193 
   87700     489.6858    -146051.2            0   -144025.76   -3152.7311 
   87800    487.55278   -146042.37            0   -144025.76    -2834.002 
   87900    486.13487   -146036.49            0   -144025.74   -3219.3204 
   88000     489.2088   -146049.18            0   -144025.71   -2946.7126 
   88100    489.82637   -146051.74            0   -144025.72    -3146.999 
   88200    487.49674   -146042.09            0   -144025.71   -3148.4883 
   88300    489.05202   -146048.53            0   -144025.71   -2992.5064 
   88400    488.55467   -146046.46            0    -144025.7   -2964.3268 
   88500    486.43095   -146037.72            0   -144025.75   -3071.3159 
   88600    488.60167   -146046.72            0   -144025.77   -3011.9795 
   88700    488.23749   -146045.22            0   -144025.78   -3111.1055 
   88800    490.20622   -146053.39            0   -144025.81   -2946.7874 
   88900    487.22386   -146041.02            0   -144025.77   -3242.3227 
   89000    488.72366   -146047.24            0   -144025.79   -3166.7492 
   89100    491.75861   -146059.79            0   -144025.78   -2991.7649 
   89200    487.94954   -146043.99            0   -144025.73    -3158.004 
   89300    489.81808   -146051.72            0   -144025.73   -3085.5826 
   89400    487.05609   -146040.27            0   -144025.71   -3110.0154 
   89500    490.44129   -146054.29            0   -144025.73   -2923.0514 
   89600    488.19121   -146044.98            0   -144025.73   -3090.4725 
   89700    487.74357   -146043.13            0   -144025.73   -3068.4666 
   89800    491.48266   -146058.61            0   -144025.74   -3028.6605 
   89900    487.91174   -146043.82            0   -144025.72   -3297.5841 
   90000    491.71167   -146059.54            0   -144025.73   -2943.6998 
   90100    489.53201    -146050.5            0    -144025.7   -3101.3237 
   90200    488.10858   -146044.61            0    -144025.7    -2990.888 
   90300    486.10756   -146036.31            0   -144025.67   -3192.0399 
   90400    492.31442   -146062.03            0   -144025.72   -2880.3644 
   90500    489.14716   -146048.91            0    -144025.7   -3147.7749 
   90600    487.68036   -146042.82            0   -144025.68   -2909.8195 
   90700    486.81553   -146039.23            0   -144025.67   -2975.9326 
   90800    488.05189   -146044.33            0   -144025.65   -2957.8526 
   90900    487.91724   -146043.79            0   -144025.67   -2974.4151 
   91000    488.42628    -146045.9            0   -144025.67   -3029.4711 
   91100    485.60546   -146034.21            0   -144025.65   -3064.3688 
   91200    488.19987   -146044.93            0   -144025.64   -2927.2994 
   91300    486.09014    -146036.2            0   -144025.63   -3005.1843 
   91400    485.93231   -146035.52            0   -144025.61   -3067.3737 
   91500    490.37844   -146053.94            0   -144025.64   -2830.8585 
   91600    489.80865   -146051.64            0   -144025.69     -3087.75 
   91700    490.23988   -146053.41            0   -144025.68   -3096.7024 
   91800    485.93672   -146035.54            0   -144025.61   -3129.9725 
   91900    490.40461   -146054.05            0   -144025.64   -2893.9102 
   92000    485.76237   -146034.81            0    -144025.6    -3102.131 
   92100    490.75434   -146055.42            0   -144025.57   -2946.4897 
   92200    486.87488   -146039.37            0   -144025.56   -3166.5296 
   92300    486.76192   -146038.87            0   -144025.53   -3014.5831 
   92400    489.27946   -146049.26            0    -144025.5   -2949.0767 
   92500    486.16668   -146036.35            0   -144025.46   -2986.1793 
   92600    487.99456   -146043.93            0   -144025.49   -3109.3932 
   92700    489.47122   -146050.04            0   -144025.49   -2993.5705 
   92800    489.30668   -146049.35            0   -144025.48   -2953.0387 
   92900    486.29159   -146036.87            0   -144025.47   -3206.4882 
   93000    491.25749   -146057.42            0   -144025.49   -2864.0912 
   93100    488.08007   -146044.26            0   -144025.47   -3256.8391 
   93200    488.12551    -146044.4            0   -144025.42   -3005.2192 
   93300     490.3646   -146053.69            0   -144025.45   -3088.1414 
   93400    489.85527   -146051.57            0   -144025.44   -3090.2143 
   93500    488.02935      -146044            0   -144025.41   -3129.3772 
   93600    488.58798   -146046.28            0   -144025.38   -2972.5862 
   93700    488.53003   -146046.03            0   -144025.38   -3083.7724 
   93800    483.20726   -146024.01            0   -144025.37    -3126.608 
   93900    489.20304   -146048.84            0    -144025.4    -2941.673 
   94000    488.60839   -146046.38            0    -144025.4   -3124.3953 
   94100    488.20648   -146044.71            0   -144025.39   -3080.8481 
   94200    488.76476   -146047.02            0   -144025.39   -2952.5883 
   94300    489.29076   -146049.18            0   -144025.38   -3109.2102 
   94400    488.43555    -146045.6            0   -144025.33    -2998.195 
   94500    485.99939    -146035.5            0   -144025.31   -3018.6649 
   94600    489.59541   -146050.39            0   -144025.32   -2870.5456 
   94700    486.03114   -146035.63            0   -144025.31   -3333.9563 
   94800    491.22761   -146057.09            0   -144025.28   -2740.2131 
   94900    485.71357   -146034.28            0   -144025.27   -3268.2407 
   95000    488.40515   -146045.42            0   -144025.28    -2959.016 
   95100    487.64677   -146042.26            0   -144025.26   -3098.8555 
   95200     488.2693   -146044.84            0   -144025.26   -2952.5191 
   95300    491.19895   -146057.03            0   -144025.33   -2960.5721 
   95400    487.03621    -146039.8            0   -144025.32   -3245.5148 
   95500    491.70885   -146059.14            0   -144025.34   -2977.1978 
   95600    489.09901   -146048.36            0   -144025.35   -3223.2545 
   95700     492.9877   -146064.48            0   -144025.39     -2840.76 
   95800    488.49196   -146045.85            0   -144025.35    -3106.464 
   95900    487.02044   -146039.74            0   -144025.33   -3138.1344 
   96000    488.90984   -146047.55            0   -144025.32   -2876.2121 
   96100    486.27471   -146036.63            0    -144025.3   -3078.8991 
   96200    489.64845   -146050.57            0   -144025.29   -2904.7351 
   96300    485.35938   -146032.79            0   -144025.25   -3241.3179 
   96400    489.78591    -146051.1            0   -144025.25   -2987.5167 
   96500    485.76185   -146034.42            0   -144025.22   -3079.3486 
   96600    492.22171   -146061.17            0   -144025.25   -2938.6344 
   96700    484.28302   -146028.31            0   -144025.22   -3143.1905 
   96800    489.08211   -146048.15            0   -144025.21   -3061.7546 
   96900    488.19434   -146044.49            0   -144025.22   -3045.3382 
   97000    487.67197   -146042.34            0   -144025.24   -3064.3347 
   97100    487.64685   -146042.27            0   -144025.26    -3133.906 
   97200    487.37011    -146041.1            0   -144025.24   -2964.9697 
   97300     487.9361   -146043.45            0   -144025.25   -3008.5046 
   97400    488.77173   -146046.92            0   -144025.27   -2972.6989 
   97500     485.8949   -146034.99            0   -144025.23   -3244.2668 
   97600    489.83749   -146051.31            0   -144025.24   -2925.2364 
   97700    488.34412   -146045.11            0   -144025.22   -3113.7722 
   97800    488.09522   -146044.11            0   -144025.25   -3222.6599 
   97900    488.13578   -146044.29            0   -144025.27    -3096.985 
   98000    487.82301   -146042.96            0   -144025.23    -3015.227 
   98100    489.67772   -146050.62            0   -144025.22   -3084.8581 
   98200    486.68308   -146038.22            0    -144025.2   -3339.9074 
   98300    489.66434    -146050.5            0   -144025.15   -2973.6766 
   98400    490.18987    -146052.7            0   -144025.18   -3197.8547 
   98500    489.60496   -146050.28            0   -144025.18   -3062.9178 
   98600    486.24372   -146036.35            0   -144025.15   -3292.3822 
   98700    489.99711   -146051.87            0   -144025.14   -3079.3408 
   98800    488.55855   -146045.88            0    -144025.1   -3220.5274 
   98900    490.71062   -146054.76            0   -144025.08   -3096.7426 
   99000    488.39415   -146045.17            0   -144025.08   -3331.2829 
   99100    490.22041   -146052.71            0   -144025.06   -3215.3575 
   99200    488.67433    -146046.3            0   -144025.04    -3107.132 
   99300    488.72474   -146046.51            0   -144025.05   -2996.3963 
   99400    486.42136   -146036.95            0   -144025.01   -3220.4371 
   99500    489.46551   -146049.51            0   -144024.98   -3027.5849 
   99600    487.29384   -146040.53            0   -144024.99   -3152.8143 
   99700    490.82616   -146055.15            0      -144025   -2875.5352 
   99800    483.54169   -146025.01            0   -144024.98   -3215.0199 
   99900    488.32023   -146044.79            0      -144025   -2924.1318 
  100000    488.89154   -146047.16            0   -144025.01   -3095.4086 
  100100    488.35112   -146044.91            0   -144024.99   -3055.1744 
  100200    486.64274   -146037.79            0   -144024.94   -3212.7245 
  100300    488.90359   -146047.14            0   -144024.94   -3036.2913 
  100400    490.30008   -146052.92            0   -144024.94   -2984.8657 
  100500    488.26317    -146044.5            0   -144024.95   -3011.2901 
  100600    487.78422   -146042.48            0   -144024.91   -2910.6097 
  100700    486.92889   -146038.97            0   -144024.93   -3202.6537 
  100800    490.33579   -146053.02            0    -144024.9   -2761.1765 
  100900    488.28826   -146044.54            0   -144024.89   -3068.2244 
  101000    488.80596    -146046.7            0    -144024.9   -3176.7708 
  101100    490.21469   -146052.52            0   -144024.89   -3011.0926 
  101200    486.10726   -146035.52            0   -144024.89   -3214.7051 
  101300     490.7613   -146054.77            0   -144024.88   -2862.8372 
  101400    486.57842   -146037.45            0   -144024.86   -3211.7337 
  101500    487.99452   -146043.33            0   -144024.89   -3109.7358 
  101600    486.39478   -146036.68            0   -144024.85   -2888.7833 
  101700    488.41276   -146045.02            0   -144024.84   -3125.9045 
  101800    488.88486   -146046.97            0   -144024.85   -3087.2197 
  101900    485.82203   -146034.23            0   -144024.77   -3090.0029 
  102000    486.95317   -146038.86            0   -144024.72   -3063.3391 
  102100    488.94453   -146047.12            0   -144024.75   -3101.5024 
  102200    490.38041   -146053.06            0   -144024.76   -3041.2838 
  102300    486.30508   -146036.23            0   -144024.77   -3138.0324 
  102400    489.24461   -146048.42            0   -144024.81   -3050.9341 
  102500    490.41377   -146053.23            0   -144024.78   -2928.5663 
  102600    489.37888   -146048.98            0   -144024.82    -3244.928 
  102700     487.1459   -146039.72            0   -144024.79   -3029.6488 
  102800    487.61761   -146041.68            0    -144024.8    -3124.353 
  102900    488.73191   -146046.28            0   -144024.79   -3021.1258 
  103000    488.81961   -146046.62            0   -144024.76   -2886.2732 
  103100    485.17975   -146031.55            0   -144024.75   -3162.0472 
  103200    488.02257   -146043.32            0   -144024.76   -2890.5934 
  103300     488.2503   -146044.27            0   -144024.77   -3028.5122 
  103400    489.19061    -146048.1            0   -144024.71   -2957.4708 
  103500    488.14996   -146043.79            0    -144024.7   -2980.2494 
  103600    486.88978   -146038.58            0   -144024.71   -3149.5317 
  103700    488.60648   -146045.66            0   -144024.68   -2893.3233 
  103800     489.5944   -146049.72            0   -144024.66   -2919.3562 
  103900    486.23312   -146035.76            0    -144024.6    -3236.441 
  104000    487.07026   -146039.22            0    -144024.6   -3000.0573 
  104100    488.19893    -146043.9            0   -144024.61   -3065.4558 
  104200    489.85638   -146050.72            0   -144024.58   -2892.5585 
  104300    485.77748   -146033.86            0   -144024.59   -3099.9842 
  104400    488.29911   -146044.27            0   -144024.57   -3072.2326 
  104500     487.6274   -146041.43            0   -144024.51   -2898.4826 
  104600     487.4541   -146040.72            0   -144024.52   -3184.0539 
  104700     487.3856   -146040.35            0   -144024.43   -2835.0182 
  104800     487.7699   -146041.92            0   -144024.41    -3040.192 
  104900    488.07887   -146043.19            0    -144024.4     -3058.97 
  105000    489.56929   -146049.34            0   -144024.39   -3144.9519 
  105100    489.52509    -146049.1            0   -144024.33   -3116.4877 
  105200    487.46857   -146040.59            0   -144024.32   -3009.2065 
  105300    487.47702   -146040.64            0   -144024.34    -3013.113 
[...]
  976400    495.32699   -146008.16            0   -143959.39   -2955.4578 
  976500    495.08324   -146007.13            0   -143959.37   -3133.9899 
  976600    495.79802    -146010.1            0   -143959.38   -3015.0597 
  976700    497.83853   -146018.53            0   -143959.37   -2951.8877 
  976800    495.10855   -146007.21            0   -143959.34   -3047.4117 
  976900    496.85346   -146014.45            0   -143959.37    -3159.628 
  977000    499.01912   -146023.38            0   -143959.34   -2944.1144 
  977100     492.2386   -145995.34            0   -143959.34   -3056.9962 
  977200    496.43462   -146012.69            0   -143959.34   -3004.0802 
  977300    496.67587   -146013.68            0   -143959.33   -3026.0279 
  977400    495.06401      -146007            0   -143959.32   -2967.8837 
  977500    498.01619   -146019.27            0   -143959.37   -3086.3033 
  977600    495.65729   -146009.51            0   -143959.38   -3040.9779 
  977700    497.43297   -146016.92            0   -143959.44   -3035.3648 
  977800    498.08914   -146019.66            0   -143959.46   -3076.3411 
  977900    495.61556    -146009.4            0   -143959.43   -2974.5444 
  978000    495.13906   -146007.41            0   -143959.42   -2995.7743 
  978100    495.58214   -146009.22            0    -143959.4   -2961.3694 
  978200    499.18278   -146024.12            0    -143959.4   -2988.5539 
  978300    495.14253   -146007.42            0   -143959.41   -2982.5683 
  978400    496.95467   -146014.91            0    -143959.4   -3012.8886 
  978500     496.4452   -146012.79            0   -143959.39   -3032.9949 
  978600    496.79129   -146014.21            0   -143959.39   -3157.2154 
  978700    495.98622   -146010.83            0   -143959.33   -3053.9363 
  978800    495.05777   -146006.96            0   -143959.31   -3048.3908 
  978900     493.0404   -145998.57            0   -143959.26   -2897.1429 
  979000    497.28129   -146016.16            0   -143959.31   -3177.7025 
  979100    497.77097   -146018.18            0   -143959.31   -3055.9948 
  979200    494.64295   -146005.21            0   -143959.27   -3142.5854 
  979300    498.25326   -146020.17            0    -143959.3   -2947.5896 
  979400    494.69496   -146005.46            0    -143959.3   -3042.2051 
  979500    494.49275   -146004.56            0   -143959.24   -3112.6745 
  979600     496.9385   -146014.63            0   -143959.19   -2850.0662 
  979700    496.17931   -146011.49            0   -143959.19   -3273.2611 
  979800     496.9659   -146014.69            0   -143959.15   -2934.9834 
  979900    495.42472   -146008.33            0   -143959.16   -3050.0353 
  980000    496.20613   -146011.57            0   -143959.16    -3041.786 
  980100    497.55183   -146017.15            0   -143959.18   -2925.5093 
  980200    491.45275   -145991.94            0   -143959.19   -3253.4579 
  980300    498.25388   -146020.06            0   -143959.19   -2891.4734 
  980400    495.74639   -146009.69            0   -143959.19   -3094.4733 
  980500    496.87198    -146014.3            0   -143959.14   -2933.0326 
  980600    496.29851   -146011.93            0   -143959.14   -3054.1772 
  980700     495.2322   -146007.49            0   -143959.11   -2940.8231 
  980800    495.65263   -146009.22            0   -143959.11   -3011.0276 
  980900    497.16428   -146015.51            0   -143959.14   -2918.4051 
  981000    498.13313   -146019.48            0   -143959.11   -3073.0835 
  981100    496.60018   -146013.09            0   -143959.06    -2971.756 
  981200    496.48746   -146012.63            0   -143959.06   -2981.7543 
  981300    495.24669   -146007.49            0   -143959.06   -3036.5318 
  981400    496.48979   -146012.62            0   -143959.04   -2913.3213 
  981500    495.40376   -146008.16            0   -143959.07   -3093.7877 
  981600    496.01898   -146010.71            0   -143959.08   -2909.9182 
  981700    498.53622    -146021.1            0   -143959.06   -2831.7762 
  981800    498.46422   -146020.77            0   -143959.02   -2930.7613 
  981900    491.38482   -145991.46            0   -143958.99   -3209.5176 
  982000     497.5203   -146016.83            0   -143958.99    -2785.293 
  982100    498.30228   -146020.06            0   -143958.98    -3139.499 
  982200    495.41832   -146008.11            0   -143958.97   -2906.0108 
  982300    497.83166   -146018.08            0   -143958.95   -3084.9048 
  982400    496.80883   -146013.81            0   -143958.91   -3026.4097 
  982500    497.17381   -146015.29            0   -143958.88   -2794.1211 
  982600    492.99594   -145997.99            0   -143958.86   -3081.7809 
  982700    495.42644   -146008.01            0   -143958.83   -2795.9259 
  982800    497.37559    -146016.1            0   -143958.86   -2965.6449 
  982900    495.94994   -146010.15            0   -143958.81   -3087.4258 
  983000    501.33498   -146032.47            0   -143958.85   -2944.6348 
  983100    500.09719   -146027.34            0   -143958.84   -3095.8112 
  983200    496.93998   -146014.24            0    -143958.8   -3090.2792 
  983300    496.34295   -146011.77            0   -143958.79   -2925.5085 
  983400     494.7491   -146005.16            0   -143958.78   -3107.8172 
  983500    496.22094   -146011.29            0   -143958.82   -3179.2329 
  983600    500.03834   -146027.05            0    -143958.8   -2986.0215 
  983700    496.78462   -146013.52            0   -143958.72   -3045.5591 
  983800    494.07109   -146002.28            0    -143958.7   -3159.2633 
  983900    494.16295   -146002.58            0   -143958.63    -3061.986 
  984000    498.83357    -146021.9            0   -143958.63   -2886.2745 
  984100     493.4967   -145999.76            0   -143958.56   -3224.9223 
  984200    494.90515   -146005.58            0   -143958.56   -3085.9653 
  984300    494.34991   -146003.27            0   -143958.54   -3071.9437 
  984400    497.29629   -146015.45            0   -143958.54   -3104.3175 
  984500    493.21743   -145998.53            0   -143958.49   -3093.4265 
  984600    493.07296   -145997.91            0   -143958.46   -3264.3358 
  984700    497.77977    -146017.4            0   -143958.49   -3144.6204 
  984800    496.12122   -146010.48            0   -143958.43   -3042.0341 
  984900    498.07486   -146018.48            0   -143958.35   -3255.9287 
  985000    494.95217   -146005.56            0   -143958.34   -3108.4866 
  985100    495.75575   -146008.87            0   -143958.33   -3023.9711 
  985200    497.30105   -146015.25            0   -143958.32   -3077.6461 
  985300    492.93291   -145997.19            0   -143958.32    -3218.065 
  985400    496.49272   -146011.92            0   -143958.33   -3197.4036 
  985500    496.88598   -146013.55            0   -143958.33   -3105.1047 
  985600     498.5572   -146020.46            0   -143958.33   -3183.2039 
  985700    493.51358   -145999.56            0   -143958.29   -3120.5993 
  985800    495.61309   -146008.25            0    -143958.3   -3163.0313 
  985900    495.49981   -146007.81            0   -143958.32   -3205.5298 
  986000    496.72578   -146012.86            0    -143958.3   -2907.1893 
  986100    495.24593   -146006.75            0   -143958.32   -3247.1277 
  986200    497.33199   -146015.36            0    -143958.3   -3054.1255 
  986300    495.18352   -146006.45            0   -143958.27   -3140.9063 
  986400    498.52491   -146020.35            0   -143958.36   -3113.0856 
  986500    495.57859   -146008.09            0   -143958.28   -3130.8019 
  986600    497.04874   -146014.18            0   -143958.29    -3149.947 
  986700    495.92687   -146009.56            0   -143958.31   -3202.3322 
  986800    496.77626   -146013.08            0   -143958.31   -3066.7569 
  986900     497.2668   -146015.06            0   -143958.27   -3136.6613 
  987000    495.67284   -146008.48            0   -143958.28    -3175.487 
  987100     498.3185   -146019.41            0   -143958.27   -2997.7012 
  987200    494.06319   -146001.74            0    -143958.2    -3145.096 
  987300    496.74415   -146012.84            0   -143958.21     -3179.94 
  987400    496.07227   -146010.07            0   -143958.22   -2828.6379 
  987500    498.36876   -146019.59            0   -143958.24   -2993.8449 
  987600    494.27383   -146002.61            0   -143958.19   -3051.8845 
  987700    497.38821   -146015.47            0   -143958.17   -2894.7601 
  987800    497.88068   -146017.51            0   -143958.18   -2966.4374 
  987900    496.46245    -146011.6            0   -143958.14   -2940.9313 
  988000    495.91763   -146009.34            0   -143958.13   -3110.7105 
  988100    494.62146   -146003.95            0    -143958.1   -2984.2975 
  988200    494.84618   -146004.87            0   -143958.09   -3048.2867 
  988300    495.99476   -146009.62            0   -143958.08   -2966.6506 
  988400    494.41102   -146003.01            0   -143958.03   -3030.6197 
  988500    497.18345   -146014.51            0   -143958.06   -2932.2918 
  988600    496.25768   -146010.68            0   -143958.06   -3078.8218 
  988700    496.65077   -146012.32            0   -143958.07   -2978.8496 
  988800    499.13991   -146022.58            0   -143958.04   -2986.7976 
  988900    496.20127   -146010.42            0   -143958.04   -2913.7103 
  989000    495.12553   -146005.97            0   -143958.03   -3053.9401 
  989100    497.84182   -146017.17            0      -143958   -2929.2233 
  989200    493.45417   -145998.95            0   -143957.93    -2893.334 
  989300    495.88097   -146008.97            0   -143957.91   -3155.9846 
  989400     493.7325    -146000.1            0   -143957.93   -3119.9594 
  989500    496.67205   -146012.23            0   -143957.89    -3013.356 
  989600    496.77193   -146012.67            0   -143957.93   -2974.0342 
  989700    497.13324   -146014.14            0    -143957.9    -3123.197 
  989800    497.53392   -146015.76            0   -143957.87   -3162.9394 
  989900    497.30635   -146014.82            0   -143957.87   -2846.2858 
  990000    494.28779   -146002.37            0    -143957.9   -3117.8189 
  990100     496.6152   -146011.98            0   -143957.88   -2927.3033 
  990200    497.10055   -146013.98            0   -143957.88   -3050.5732 
  990300    498.40566   -146019.36            0   -143957.86   -3035.9395 
  990400    494.22031   -146002.03            0   -143957.84   -3259.0177 
  990500    499.52805   -146024.01            0   -143957.86   -2961.3732 
  990600    498.31122   -146018.95            0   -143957.84   -3026.1125 
  990700    495.22917   -146006.14            0   -143957.77   -3050.5311 
  990800     493.6817   -145999.64            0   -143957.68   -3020.2667 
  990900    495.60831    -146007.6            0   -143957.67   -2929.8575 
  991000    496.63723   -146011.84            0   -143957.65   -3144.7771 
  991100    494.68567   -146003.72            0   -143957.61   -2977.3554 
  991200    496.80886   -146012.51            0   -143957.61   -3287.6851 
  991300    499.58105      -146024            0   -143957.64   -2879.7114 
  991400    495.08371   -146005.36            0    -143957.6   -3206.4649 
  991500    493.06598   -145996.97            0   -143957.55   -3197.4253 
  991600    497.74411   -146016.36            0   -143957.59   -3106.3799 
  991700    496.69435   -146011.98            0   -143957.55   -3072.6274 
  991800    494.55595   -146003.11            0   -143957.53    -3152.054 
  991900    493.42187   -145998.48            0   -143957.59   -3305.9958 
  992000    497.09822   -146013.66            0   -143957.57   -3077.5961 
  992100    495.85518   -146008.53            0   -143957.58   -3234.6457 
  992200    497.13147   -146013.85            0   -143957.62   -3216.4821 
  992300    497.39446   -146014.91            0   -143957.59    -3213.796 
  992400    497.64353   -146015.95            0    -143957.6   -3218.0299 
  992500    496.45904   -146011.04            0   -143957.58   -3098.1637 
  992600    497.16418   -146013.94            0   -143957.57    -3170.731 
  992700    496.14438    -146009.7            0   -143957.55   -3191.9285 
  992800    495.24221   -146005.96            0   -143957.54   -3119.9575 
  992900    498.74331   -146020.44            0   -143957.54   -3244.9184 
  993000     498.4435   -146019.18            0   -143957.52   -2977.2771 
  993100    495.17518   -146005.66            0   -143957.52   -3273.3494 
  993200    499.38784   -146023.08            0   -143957.51   -2983.3599 
  993300    492.98763    -145996.6            0    -143957.5   -3253.8161 
  993400    497.73319   -146016.21            0   -143957.49   -2999.1269 
  993500    496.64358   -146011.65            0   -143957.44   -3058.3408 
  993600    492.91291   -145996.23            0   -143957.44   -3494.4514 
  993700    499.28899    -146022.6            0   -143957.44   -2958.5475 
  993800    496.47609   -146010.97            0   -143957.44    -3349.492 
  993900    495.92685   -146008.67            0   -143957.42   -3169.3188 
  994000    497.95923   -146017.06            0    -143957.4    -3027.723 
  994100    495.95108    -146008.7            0   -143957.35   -3104.5493 
  994200    498.29848   -146018.45            0   -143957.39   -3097.1706 
  994300     496.4923   -146010.96            0   -143957.37   -3242.9937 
  994400    496.59626   -146011.38            0   -143957.36   -3056.2664 
  994500    496.26342   -146010.01            0   -143957.37   -3067.3316 
  994600    496.65212    -146011.6            0   -143957.35   -3068.4606 
  994700    495.21619   -146005.68            0   -143957.36    -3211.907 
  994800    495.69372   -146007.66            0   -143957.37   -3211.5849 
  994900    498.14596   -146017.78            0   -143957.35   -3062.4967 
  995000    496.63174    -146011.5            0   -143957.33   -3143.4378 
  995100    496.26874   -146009.94            0   -143957.27   -3191.2678 
  995200    493.64415   -145999.07            0   -143957.26   -3219.9744 
  995300    497.10657   -146013.37            0   -143957.24   -3118.9265 
  995400    495.44483   -146006.45            0    -143957.2   -3138.3994 
  995500    498.32126   -146018.39            0   -143957.24   -3133.1537 
  995600    495.92957   -146008.49            0   -143957.22   -3280.4054 
  995700     496.6892   -146011.63            0   -143957.22   -3050.4236 
  995800     497.9626   -146016.92            0   -143957.25   -3096.8663 
  995900    495.26208   -146005.73            0   -143957.23   -3293.9092 
  996000    499.46664   -146023.15            0   -143957.26   -2986.5431 
  996100    495.48664   -146006.64            0   -143957.21   -3304.1779 
  996200    496.52832   -146010.88            0   -143957.14   -2949.9027 
  996300    495.82174   -146007.94            0   -143957.12   -3064.3387 
  996400    496.11223   -146009.13            0   -143957.12   -3139.9376 
  996500    495.18722   -146005.21            0   -143957.02   -3084.4881 
  996600    497.42817   -146014.44            0   -143956.98   -2986.3367 
  996700    496.79536   -146011.84            0      -143957   -3329.8823 
  996800    498.81125   -146020.21            0   -143957.03   -2979.8925 
  996900    497.32454   -146014.05            0   -143957.02   -3200.8277 
  997000    497.82659   -146016.13            0   -143957.02   -3156.3218 
  997100    499.48727      -146023            0   -143957.03   -3019.6175 
  997200    498.31324   -146018.15            0   -143957.03   -3279.5366 
  997300    496.65983   -146011.26            0   -143956.98    -3273.537 
  997400    497.39104   -146014.25            0   -143956.95   -2862.1525 
  997500    494.69115   -146003.11            0   -143956.97   -3080.4541 
  997600    495.19134   -146005.14            0   -143956.94   -3100.2322 
  997700    496.07722   -146008.81            0   -143956.94   -3197.8774 
  997800    495.62429   -146006.94            0   -143956.94   -3085.2667 
  997900    495.82542   -146007.74            0   -143956.91   -3003.3317 
  998000    495.68548   -146007.17            0   -143956.92   -3130.5149 
  998100    496.13339   -146009.04            0   -143956.93   -3015.6463 
  998200    493.37042   -145997.61            0   -143956.93   -3050.4012 
  998300    496.18716   -146009.28            0   -143956.95   -2985.2867 
  998400    496.84218   -146011.98            0   -143956.94    -2947.199 
  998500    494.71993   -146003.22            0   -143956.96   -3280.9106 
  998600    498.38707   -146018.38            0   -143956.96   -3097.8051 
  998700    496.43253   -146010.28            0   -143956.94   -2947.2568 
  998800     495.3963   -146005.96            0   -143956.91   -3215.8583 
  998900    496.87377   -146012.08            0   -143956.91   -3084.1823 
  999000    497.57152   -146014.97            0   -143956.91   -3225.7749 
  999100    496.60259   -146010.96            0   -143956.92   -3251.5523 
  999200    495.19952   -146005.14            0    -143956.9   -2916.9467 
  999300    494.29548   -146001.44            0   -143956.93    -3229.991 
  999400    496.06146   -146008.71            0   -143956.91   -2982.5196 
  999500     497.6883   -146015.46            0   -143956.92   -3174.3041 
  999600    496.32285   -146009.84            0   -143956.96   -3176.5816 
  999700    499.49208    -146022.9            0   -143956.91   -2910.0938 
  999800    492.16962   -145992.59            0   -143956.88   -3452.0461 
  999900    500.66981    -146027.8            0   -143956.93   -2711.6643 
 1000000    494.22792   -146001.13            0   -143956.91   -3151.2982 
Loop time of 7693.12 on 16 procs for 1000000 steps with 32000 atoms

Performance: 11.231 ns/day, 2.137 hours/ns, 129.986 timesteps/s
99.8% CPU use with 16 MPI tasks x 1 OpenMP threads

MPI task timing breakdown:
Section |  min time  |  avg time  |  max time  |%varavg| %total
---------------------------------------------------------------
Pair    | 3187.1     | 3412.9     | 3523.7     | 154.5 | 44.36
Neigh   | 125.86     | 143.42     | 154.45     |  77.6 |  1.86
Comm    | 3423.1     | 3553.4     | 3794.8     | 167.9 | 46.19
Output  | 4.5887     | 5.1192     | 5.7245     |  18.3 |  0.07
Modify  | 15.53      | 16.166     | 19.703     |  33.2 |  0.21
Other   |            | 562.2      |            |       |  7.31

Nlocal:    2000 ave 2004 max 1997 min
Histogram: 2 2 3 0 3 2 0 2 1 1
Nghost:    1899.5 ave 1907 max 1891 min
Histogram: 1 2 0 3 1 1 3 1 3 1
Neighs:    0 ave 0 max 0 min
Histogram: 16 0 0 0 0 0 0 0 0 0
FullNghs:  0 ave 0 max 0 min
Histogram: 16 0 0 0 0 0 0 0 0 0

Total # of neighbors = 0
Ave neighs/atom = 0
Neighbor list builds = 31499
Dangerous builds = 0

------------------------------------------------
               Offload Timing Data
------------------------------------------------
  Data Pack/Cast Seconds    45.795948
  Host Neighbor Seconds     3.118518
  Host Pair Seconds         0.000000
  Offload Neighbor Seconds  57.077040
  Offload Pair Seconds      1651.995970
  Offload Wait Seconds      2911.326087
  Offload Latency Seconds   591.605138
  Offload Neighbor Balance  1.000000
  Offload Pair Balance      1.000000
  Offload Ghost Atoms       Yes
------------------------------------------------
Total wall time: 2:08:17

Used hosts:
linuxbmc1348 16.0   (current load is: 0.07)
linuxbmc1349 0   (current load is: 0.08)

Command: /opt/intel/impi/5.0.3.048/bin64/mpiexec.hydra -machinefile /tmp/mh464322/cluster-phi_148378/hostfile-109578 -host cluster-phi -np 16 /rwthfs/rz/cluster/home/mh464322/tersoff-sc16/machines/rwth-sb_phi/lammps-10Mar16/src/lmp_intel_phi_default_vector -in in.tersoff-acc -pk intel 1 mode mixed -sf intel -v p vanilla


Removing hostfile: /tmp/mh464322/cluster-phi_148378/hostfile-109578
