LAMMPS (10 Mar 2016)
  using 1 OpenMP thread(s) per MPI task
Intel Package: Affinitizing MPI Tasks to 2 Cores Each
Intel Package: Affinitizing MPI Tasks to 2 Cores Each
Lattice spacing in x,y,z = 5.431 5.431 5.431
Created orthogonal box = (0 0 0) to (108.62 108.62 54.31)
  2 by 4 by 2 MPI processor grid
Created 32000 atoms
----------------------------------------------------------
Using Intel Coprocessor with 4 threads per core, 14 threads per task
Precision: single
----------------------------------------------------------
Neighbor list info ...
  1 neighbor list requests
  update every 1 steps, delay 5 steps, check yes
  max neighbors/atom: 2000, page size: 100000
  master list distance cutoff = 4.2
  ghost atom cutoff = 4.2
  binsize = 2.1, bins = 52 52 26
Setting up Verlet run ...
  Unit style  : metal
  Current step: 0
  Time step   : 0.001
Memory usage per processor = 12.2341 Mbytes
Step Temp E_pair E_mol TotEng Press 
       0         1000   -148173.17            0   -144036.97    7019.6099 
     100    430.59833   -145815.58            0   -144034.54   -14551.451 
     200    543.50229   -146282.38            0   -144034.35    -2110.663 
     300    494.98794    -146081.4            0   -144034.03   -3957.7196 
     400    497.22756   -146090.66            0   -144034.03   -3083.3562 
     500    477.95913   -146010.89            0   -144033.96   -3178.0567 
     600    468.75402   -145972.89            0   -144034.03   -4941.6933 
     700    497.72839   -146092.71            0   -144034.01   -2377.8115 
     800     489.3048   -146057.87            0   -144034.01   -3815.5832 
     900    489.15981   -146057.23            0   -144033.97   -3246.4263 
    1000    483.20934   -146032.58            0   -144033.93   -3975.1544 
    1100    489.04894   -146056.73            0   -144033.93   -3234.1392 
    1200    487.16809   -146048.96            0   -144033.94   -3356.7195 
    1300    490.17345   -146061.39            0   -144033.94   -3635.4232 
    1400    487.18896   -146049.04            0   -144033.93   -3698.8576 
    1500     489.8205   -146059.92            0   -144033.92    -3453.147 
    1600    488.10679    -146052.8            0   -144033.89   -3335.4068 
    1700    487.00632   -146048.29            0   -144033.94   -3557.8586 
    1800    488.04268   -146052.51            0   -144033.87    -3300.406 
    1900    485.96191   -146043.93            0   -144033.89   -3401.4347 
    2000    486.82811    -146047.5            0   -144033.89   -3542.8352 
    2100    489.31415   -146057.76            0   -144033.86   -3083.0472 
    2200    484.31941   -146037.13            0   -144033.89   -3570.7583 
    2300    488.74854   -146055.46            0    -144033.9   -3079.6667 
    2400    485.25164    -146041.1            0   -144034.01   -3475.0625 
    2500    488.70098   -146055.32            0   -144033.96   -3279.9243 
    2600    490.02603   -146060.86            0   -144034.01    -3117.517 
    2700    482.50197    -146029.7            0   -144033.98   -3617.0038 
    2800    488.81545   -146055.83            0   -144033.99   -3125.8751 
    2900    486.23481   -146045.12            0   -144033.95   -3406.3156 
    3000    491.24485   -146065.89            0   -144034.01   -3592.0162 
    3100    489.56645    -146058.9            0   -144033.96   -3302.3942 
    3200    486.64718   -146046.79            0   -144033.92   -3330.1874 
    3300    489.06481   -146056.82            0   -144033.96   -3260.6578 
    3400    485.05629    -146040.2            0   -144033.91   -3536.4626 
    3500    489.22276   -146057.44            0   -144033.92   -3038.1684 
    3600    487.36813    -146049.8            0   -144033.95   -3460.3529 
    3700    487.97819   -146052.29            0   -144033.92   -3405.5302 
    3800    488.61817   -146054.91            0   -144033.89   -2993.8576 
    3900    485.85454   -146043.38            0   -144033.79   -3548.1393 
    4000    488.59062   -146054.69            0   -144033.78   -3154.7215 
    4100    487.85912   -146051.61            0   -144033.73   -3301.4911 
    4200    484.29835   -146036.81            0   -144033.66   -3538.8342 
    4300    490.85169   -146063.91            0   -144033.65   -3134.1084 
    4400    488.13885   -146052.72            0   -144033.68   -3423.5948 
    4500    490.82304   -146063.77            0   -144033.63   -3057.7689 
    4600    483.04405   -146031.52            0   -144033.56   -3417.1699 
    4700    489.27563   -146057.31            0   -144033.57   -3049.1585 
    4800     486.0073   -146043.72            0   -144033.49   -3413.2545 
    4900    489.32413   -146057.35            0   -144033.41   -3202.3401 
    5000    489.55592   -146058.26            0   -144033.36    -2989.002 
    5100    486.06722   -146043.81            0   -144033.34   -3370.4677 
    5200    492.11331   -146068.77            0    -144033.3   -2870.7018 
    5300    483.84048   -146034.52            0   -144033.26   -3595.0195 
    5400    491.46072   -146066.02            0   -144033.24    -3001.797 
    5500    487.16395   -146048.22            0   -144033.21   -3295.2439 
    5600    486.37042   -146044.93            0   -144033.21    -3176.186 
    5700    488.56176   -146053.98            0    -144033.2   -3116.1675 
    5800    488.74984   -146054.71            0   -144033.15   -3268.3837 
    5900    488.82787   -146055.01            0   -144033.13   -3221.9438 
    6000    488.49329   -146053.61            0   -144033.11    -3029.488 
    6100     484.6494   -146037.71            0   -144033.11   -3189.2562 
    6200    485.68454   -146042.02            0   -144033.13   -3276.9524 
    6300     487.8798   -146051.13            0   -144033.17   -2906.9928 
    6400    486.12032   -146043.89            0    -144033.2   -3114.6964 
    6500    486.74332   -146046.47            0    -144033.2   -2956.8096 
    6600    483.88001   -146034.55            0   -144033.13   -3119.3586 
    6700    486.78079   -146046.56            0   -144033.14   -3126.3547 
    6800    489.17739   -146056.53            0   -144033.19   -2896.9193 
    6900    485.39653   -146040.85            0   -144033.15   -3060.3864 
    7000    488.14694   -146052.19            0   -144033.12   -2914.1885 
    7100    486.42913   -146045.09            0   -144033.13   -3063.7219 
    7200    489.22446   -146056.68            0   -144033.15   -2939.7651 
    7300    485.20822   -146040.04            0   -144033.13   -3281.0157 
    7400    487.93284   -146051.33            0   -144033.15   -3033.6416 
    7500    485.55326    -146041.5            0   -144033.16   -3177.5624 
    7600    487.87485   -146051.06            0   -144033.12   -2926.6526 
    7700    486.81251   -146046.59            0   -144033.04   -3049.6605 
    7800    485.81393   -146042.43            0   -144033.01   -3056.2547 
    7900     486.8662   -146046.78            0      -144033   -3057.8698 
    8000    486.96645   -146047.14            0   -144032.96   -3020.1338 
    8100     488.2724   -146052.59            0      -144033   -2900.9664 
    8200    483.20899    -146031.6            0   -144032.96   -3276.9195 
    8300    486.10737   -146043.65            0   -144033.01   -3064.5279 
    8400    485.19395   -146039.81            0   -144032.95   -2910.0827 
    8500    487.41081   -146048.99            0   -144032.97    -3001.242 
    8600    487.44553   -146049.19            0   -144033.02   -3126.3971 
    8700      485.151   -146039.61            0   -144032.93   -3196.5404 
    8800    487.74421   -146050.35            0   -144032.94   -2956.5978 
    8900    486.86564   -146046.74            0   -144032.97   -3333.6679 
    9000    490.52543   -146061.87            0   -144032.96   -2862.9321 
    9100    485.94405   -146042.92            0   -144032.96   -3298.7502 
    9200    491.35538   -146065.24            0   -144032.89   -2932.9837 
    9300    485.74088   -146042.03            0   -144032.91   -3213.2086 
    9400    488.05586   -146051.59            0   -144032.89   -2995.5624 
    9500    486.95855   -146047.08            0   -144032.93   -3206.8445 
    9600    486.72019   -146046.15            0   -144032.98   -3038.7914 
    9700    488.32971   -146052.81            0   -144032.98   -3043.7483 
    9800    485.98356   -146043.09            0   -144032.96   -3067.0295 
    9900    488.59238   -146053.87            0   -144032.96   -2978.2647 
   10000    485.45666   -146040.87            0   -144032.92    -3125.153 
   10100     488.9252   -146055.23            0   -144032.94   -3025.8532 
   10200    489.00368   -146055.52            0    -144032.9   -3154.6857 
   10300    488.12639   -146051.85            0   -144032.87   -2972.8996 
   10400    488.46156   -146053.29            0   -144032.92   -3144.4764 
   10500    489.55882   -146057.78            0   -144032.87   -3122.6272 
   10600    487.89357   -146050.89            0   -144032.86   -3012.8461 
   10700    487.00021    -146047.2            0   -144032.87   -3042.8522 
   10800    488.80141   -146054.61            0   -144032.83   -2998.0297 
   10900    486.07779   -146043.33            0   -144032.82   -3204.0023 
   11000    485.99513      -146043            0   -144032.83   -3073.1222 
   11100    487.79057   -146050.46            0   -144032.86   -3162.5468 
   11200    485.89185   -146042.61            0   -144032.87   -3017.6462 
   11300    488.97373   -146055.38            0   -144032.89   -3026.4102 
   11400    486.93691   -146046.86            0    -144032.8    -3135.923 
   11500    489.14067   -146055.98            0    -144032.8   -3066.7333 
   11600    486.97678   -146047.03            0   -144032.79   -3009.5087 
   11700    487.94058   -146050.96            0   -144032.74   -3182.7112 
   11800    489.64823   -146058.01            0   -144032.73   -3001.3213 
   11900    487.44391   -146048.82            0   -144032.65   -3071.6271 
   12000    489.90211   -146058.99            0   -144032.66   -2906.9221 
   12100    488.26736   -146052.25            0   -144032.68   -3041.9649 
   12200    486.65048   -146045.53            0   -144032.64   -2967.0175 
   12300    486.34632   -146044.19            0   -144032.57   -3202.1703 
   12400    487.92266   -146050.78            0   -144032.63   -3093.3616 
   12500    487.60881   -146049.45            0   -144032.61   -2895.5648 
   12600    484.69996   -146037.41            0    -144032.6   -3032.0204 
   12700    487.22942    -146047.9            0   -144032.62   -2970.7319 
   12800    489.67769   -146057.98            0   -144032.57   -2758.3497 
   12900    487.98366   -146050.98            0   -144032.59   -3092.3761 
   13000    491.69253   -146066.31            0   -144032.58   -3175.9546 
   13100    490.63193   -146061.94            0   -144032.59   -2949.6346 
   13200    486.26868   -146043.86            0   -144032.56   -2979.2027 
   13300    487.10978    -146047.3            0   -144032.52   -3118.0786 
   13400    488.74703   -146054.03            0   -144032.48   -2966.5339 
   13500    487.45794   -146048.68            0   -144032.46   -3168.1538 
   13600    489.28613   -146056.26            0   -144032.48     -2987.17 
   13700    486.60575   -146045.21            0   -144032.51   -3044.2789 
   13800    488.85657   -146054.52            0   -144032.52   -2969.2239 
   13900    489.46265   -146057.03            0   -144032.52   -3095.2576 
   14000    486.71954   -146045.67            0    -144032.5   -3251.0945 
   14100    490.08004   -146059.57            0    -144032.5   -2943.2539 
   14200    487.51521   -146048.88            0   -144032.42   -3070.5456 
   14300    486.83609      -146046            0   -144032.35   -2977.3928 
   14400    487.02655   -146046.83            0    -144032.4    -3209.095 
   14500    485.95598   -146042.39            0   -144032.38   -3099.4172 
   14600    489.64437   -146057.68            0   -144032.41   -2777.6608 
   14700    486.32453   -146043.94            0    -144032.4   -3149.0506 
   14800    486.54251   -146044.79            0   -144032.36   -3124.6452 
   14900    489.15711   -146055.57            0   -144032.32   -3063.3379 
   15000    488.43068   -146052.55            0    -144032.3   -2991.7774 
   15100    487.34106   -146048.05            0   -144032.31   -3207.1918 
   15200    491.24689    -146064.2            0    -144032.3   -2973.3837 
   15300    488.63777   -146053.36            0   -144032.26   -3002.6693 
   15400    488.06152   -146050.97            0   -144032.26   -3055.8944 
   15500    484.59783   -146036.58            0   -144032.19   -3126.9817 
   15600    488.75991   -146053.77            0   -144032.17   -3107.5123 
   15700    489.14838   -146055.38            0   -144032.17   -2986.7056 
   15800    487.86469   -146050.04            0   -144032.14   -3084.4957 
   15900     486.1649   -146043.01            0   -144032.13   -3264.7645 
   16000    489.24243   -146055.76            0   -144032.16   -2872.7067 
   16100    483.98694   -146033.95            0   -144032.09   -3254.5849 
   16200    489.02799   -146054.79            0   -144032.07   -2670.0217 
   16300    483.34603   -146031.27            0   -144032.05   -3167.1778 
   16400    489.28023   -146055.74            0   -144031.98   -2850.6791 
   16500    488.01946   -146050.51            0   -144031.97   -3081.2233 
   16600    486.24151   -146043.12            0   -144031.93    -3052.402 
   16700    488.35226   -146051.83            0    -144031.9   -2942.9748 
   16800    487.12188    -146046.7            0   -144031.87   -3080.4752 
   16900    490.67228   -146061.43            0   -144031.91   -2898.8754 
   17000    486.49376   -146044.09            0   -144031.86   -3159.8744 
   17100    487.83176   -146049.63            0   -144031.87   -2830.2604 
   17200    488.73118   -146053.33            0   -144031.85   -2947.2009 
   17300    486.11204   -146042.43            0   -144031.78   -3119.1595 
   17400    487.07239   -146046.35            0   -144031.72   -2845.8161 
   17500     489.1353   -146054.88            0   -144031.72   -2945.9968 
   17600    487.26036   -146047.18            0   -144031.78   -2942.7034 
   17700    484.77747   -146036.88            0   -144031.74   -3077.6585 
   17800    485.79112   -146041.05            0   -144031.73   -2988.5571 
   17900    486.63655   -146044.58            0   -144031.76   -3075.5766 
   18000    488.81635   -146053.52            0   -144031.68   -2993.7129 
   18100    487.07773   -146046.32            0   -144031.67   -2994.4304 
   18200    485.73978   -146040.78            0   -144031.66   -3163.4502 
   18300    487.32985   -146047.33            0   -144031.64   -2698.5556 
   18400    487.13255   -146046.49            0   -144031.61   -3141.6801 
   18500    488.91674   -146053.86            0   -144031.61    -2862.268 
   18600    486.27936   -146042.88            0   -144031.53   -3010.6962 
   18700    487.39491   -146047.47            0   -144031.51   -2896.8581 
   18800    486.13764   -146042.25            0   -144031.49   -3063.9351 
   18900    486.36785   -146043.18            0   -144031.47   -2806.3512 
   19000    485.43537   -146039.34            0   -144031.49   -3064.6895 
   19100    488.87913   -146053.55            0   -144031.45    -2987.538 
   19200    490.06159    -146058.4            0   -144031.41    -3019.219 
   19300    487.30671      -146047            0    -144031.4   -3273.2088 
   19400    487.38466   -146047.33            0   -144031.41   -3090.6987 
   19500    489.99676   -146058.11            0   -144031.39   -3016.8607 
   19600    487.48088   -146047.69            0   -144031.37   -3150.6175 
   19700    487.41036   -146047.37            0   -144031.34   -2878.2647 
   19800    486.81162   -146044.88            0   -144031.33   -2933.7923 
   19900    487.45288   -146047.52            0   -144031.32   -3032.6213 
   20000    486.66989   -146044.29            0   -144031.33    -3203.104 
   20100    493.80028   -146073.76            0   -144031.31    -2863.984 
   20200    484.91988   -146037.01            0   -144031.28   -3218.9537 
   20300    489.79489   -146057.15            0   -144031.26   -2903.3435 
   20400    487.46474    -146047.5            0   -144031.25    -3013.967 
   20500    488.74503   -146052.81            0   -144031.26    -3142.861 
   20600    485.61392   -146039.84            0   -144031.25   -3104.5384 
   20700    486.78672   -146044.67            0   -144031.23   -2900.6099 
   20800    487.06748   -146045.79            0   -144031.19   -3124.3969 
   20900     483.9827      -146033            0   -144031.15   -2895.3473 
   21000    486.91784   -146045.06            0   -144031.08   -3098.7178 
   21100    485.91408   -146040.82            0   -144030.99   -2982.1782 
   21200    486.20228      -146042            0   -144030.97   -3002.4533 
   21300    487.65067   -146047.99            0   -144030.97   -3118.4651 
   21400    487.26545   -146046.42            0      -144031   -3310.2613 
   21500    490.66145   -146060.41            0   -144030.94    -3092.577 
   21600    487.85948   -146048.82            0   -144030.94   -3092.1539 
   21700    488.87605   -146053.02            0   -144030.93   -3131.0195 
   21800      488.957   -146053.34            0   -144030.92   -3152.4499 
   21900    489.37285   -146055.09            0   -144030.95   -3026.3201 
   22000    487.36588   -146046.78            0   -144030.94    -3224.561 
   22100    488.78148   -146052.66            0   -144030.96   -2960.9628 
   22200    487.09602    -146045.7            0   -144030.98   -3267.2101 
   22300    489.28623   -146054.73            0   -144030.95   -3046.2645 
   22400    489.50483   -146055.62            0   -144030.94   -3196.9592 
   22500    488.02202    -146049.5            0   -144030.95   -3150.6566 
   22600    490.28522   -146058.88            0   -144030.97   -2955.7049 
   22700    486.41382   -146042.88            0   -144030.98   -3209.5542 
   22800    487.42128      -146047            0   -144030.93   -3029.8759 
   22900    488.30753   -146050.67            0   -144030.94   -3182.7607 
   23000    488.69434   -146052.24            0   -144030.91    -3108.629 
   23100    487.31181   -146046.55            0   -144030.94   -3113.2556 
   23200     488.9002   -146053.12            0   -144030.93   -3209.3407 
   23300     488.0229   -146049.43            0   -144030.88   -3014.2154 
   23400    489.55407   -146055.77            0   -144030.88   -3061.6895 
   23500    489.53468   -146055.71            0    -144030.9   -3151.5448 
   23600    486.41415   -146042.72            0   -144030.81   -3182.9514 
   23700    489.03849   -146053.48            0   -144030.72   -3012.7501 
   23800    486.06039    -146041.1            0   -144030.66   -2991.8038 
   23900    488.59851   -146051.62            0   -144030.68   -2929.5439 
   24000    486.40412   -146042.48            0   -144030.62   -3247.9248 
   24100    488.99879   -146053.19            0    -144030.6   -3036.0354 
   24200     488.7766   -146052.28            0   -144030.61   -3165.7516 
   24300    487.37717   -146046.48            0    -144030.6   -3104.6204 
   24400     489.9438   -146057.17            0   -144030.67   -3023.9654 
   24500    488.52601   -146051.21            0   -144030.57   -3073.5229 
   24600    485.94482   -146040.49            0   -144030.53   -3260.4098 
   24700    486.92648   -146044.51            0   -144030.49   -2800.7909 
   24800     488.0888   -146049.33            0    -144030.5   -3171.4567 
   24900    487.45944   -146046.69            0   -144030.46   -2782.0495 
   25000    485.84581   -146040.03            0   -144030.48    -3077.611 
   25100    486.26632   -146041.78            0   -144030.49   -3076.2075 
   25200     488.3165   -146050.27            0   -144030.49   -2963.9421 
   25300    490.75319   -146060.34            0   -144030.49   -3015.3633 
   25400    488.20696    -146049.8            0   -144030.48   -3076.4899 
   25500    487.71822   -146047.74            0   -144030.44   -2968.7922 
   25600    490.91346   -146060.91            0    -144030.4   -2889.4413 
   25700    488.15864   -146049.51            0   -144030.39   -2972.3573 
   25800    486.72694   -146043.61            0   -144030.41   -3032.7841 
   25900    488.64734   -146051.55            0   -144030.41   -2879.9454 
   26000    486.94469   -146044.47            0   -144030.37   -2881.0519 
   26100    487.76368   -146047.83            0   -144030.34   -3071.4058 
   26200    488.10854   -146049.21            0    -144030.3   -2964.8117 
   26300    488.84385   -146052.27            0   -144030.31   -3101.7347 
   26400    489.79595   -146056.19            0    -144030.3   -3073.8343 
   26500    488.17835   -146049.46            0   -144030.26   -2917.7417 
   26600    489.32955   -146054.18            0   -144030.21   -3052.5814 
   26700    485.38907   -146037.81            0   -144030.15   -2871.2887 
   26800    486.01066    -146040.4            0   -144030.16   -2965.1542 
   26900    487.32277   -146045.82            0   -144030.15    -3068.606 
   27000    488.07134   -146048.89            0   -144030.13   -2963.8491 
   27100    486.87667    -146043.9            0   -144030.09   -2983.8711 
   27200     489.7988   -146055.98            0   -144030.07   -2938.6036 
   27300     488.9902    -146052.6            0   -144030.04   -2889.5782 
   27400     485.7277   -146039.11            0   -144030.05    -3202.108 
   27500    487.97643   -146048.36            0      -144030   -2788.9039 
   27600    484.53839   -146034.11            0   -144029.96   -3141.6082 
   27700      488.447   -146050.19            0   -144029.88   -2829.1119 
   27800    485.85946   -146039.49            0   -144029.88   -3102.2959 
   27900    486.19485   -146040.82            0   -144029.83   -2945.6967 
   28000    488.52794   -146050.47            0   -144029.82   -3056.2118 
   28100    490.92104   -146060.46            0   -144029.91   -2983.5975 
   28200    486.37905   -146041.63            0   -144029.87   -3040.3746 
   28300    486.71963      -146043            0   -144029.83   -2966.5654 
   28400    491.20699   -146061.59            0   -144029.86   -2963.2838 
   28500    488.59302   -146050.78            0   -144029.87   -3180.2029 
   28600    487.21854   -146045.04            0   -144029.81   -2911.4239 
   28700     492.2308    -146065.8            0   -144029.84   -2996.4129 
   28800    485.72383   -146038.83            0   -144029.78   -3073.0229 
   28900    491.45482   -146062.54            0   -144029.79   -2869.3265 
   29000    487.46191   -146045.98            0   -144029.75   -3076.1499 
   29100    486.26702   -146040.98            0   -144029.68   -2887.4129 
   29200    486.41644   -146041.59            0   -144029.68   -3142.6513 
   29300    488.60176   -146050.69            0   -144029.74   -3080.8135 
   29400    490.01032   -146056.48            0    -144029.7   -2927.8702 
   29500    487.20192   -146044.81            0   -144029.64   -3078.2347 
   29600    487.48292   -146045.93            0   -144029.61   -3085.0342 
   29700    488.84163   -146051.55            0    -144029.6   -2947.3951 
   29800    486.76538   -146042.92            0   -144029.56   -3107.2707 
   29900    486.49655   -146041.83            0   -144029.59   -3080.2535 
   30000    489.26673   -146053.36            0   -144029.65   -2956.0349 
   30100     489.3572   -146053.68            0    -144029.6   -3066.6697 
   30200    486.65721   -146042.46            0   -144029.55   -3101.0357 
   30300     488.0033   -146048.05            0   -144029.57   -2955.5017 
   30400    485.56124    -146037.9            0   -144029.53   -3101.1964 
   30500    489.28853   -146053.33            0   -144029.54   -2926.6804 
   30600    486.85235   -146043.24            0   -144029.52   -3011.8968 
   30700    488.78921   -146051.29            0   -144029.56   -3010.5371 
   30800     487.1212    -146044.4            0   -144029.57    -2987.634 
   30900    487.76127   -146047.08            0    -144029.6   -2953.0592 
   31000    490.17263   -146057.09            0   -144029.64    -2793.149 
   31100    484.88488   -146035.18            0   -144029.61   -3156.3474 
   31200    486.73003   -146042.79            0   -144029.58   -2926.3929 
   31300    488.29978   -146049.29            0   -144029.59   -2927.6778 
   31400    489.84207   -146055.66            0   -144029.58   -2895.3111 
   31500    489.75606   -146055.32            0   -144029.59   -3063.8616 
   31600    489.68968   -146055.02            0   -144029.57    -2961.045 
   31700    489.38758   -146053.75            0   -144029.55   -2893.4574 
   31800    488.26971   -146049.12            0   -144029.54   -3054.5594 
   31900    487.48553   -146045.81            0   -144029.48   -2878.4378 
   32000    487.44404    -146045.7            0   -144029.54   -3166.8637 
   32100    488.20583   -146048.83            0   -144029.51    -2819.454 
   32200    487.25435   -146044.89            0   -144029.51   -3140.6325 
   32300    488.08001   -146048.28            0   -144029.49   -2895.2087 
   32400    488.04047   -146048.09            0   -144029.46   -2894.6816 
   32500    485.56067   -146037.85            0   -144029.47   -2961.5067 
   32600      487.103   -146044.19            0   -144029.43   -2858.2752 
   32700    486.85206   -146043.13            0   -144029.41   -2978.8566 
   32800    486.80437   -146042.98            0   -144029.46    -2934.221 
   32900    489.66811   -146054.81            0   -144029.45   -2881.0623 
   33000    485.47445   -146037.45            0   -144029.43   -2923.5278 
   33100    487.07966   -146044.07            0   -144029.42    -3032.308 
   33200     485.0652   -146035.75            0   -144029.42   -2903.3101 
   33300    488.82116   -146051.26            0    -144029.4   -2818.9052 
   33400    487.95539    -146047.7            0   -144029.42   -2900.4997 
   33500    488.70871   -146050.82            0   -144029.43   -2954.8941 
   33600    486.25679   -146040.65            0    -144029.4   -3029.9451 
   33700    490.75517   -146059.26            0    -144029.4   -2801.8037 
   33800    485.98798   -146039.55            0   -144029.41    -2844.927 
   33900    486.71049   -146042.56            0   -144029.43   -2846.3901 
   34000    486.57287   -146041.99            0   -144029.43   -2995.5932 
   34100    488.42718   -146049.65            0   -144029.42   -2710.5948 
   34200    487.77855    -146046.9            0   -144029.35   -2921.9344 
   34300    485.71423   -146038.43            0   -144029.42   -2886.9399 
   34400    486.83895   -146043.09            0   -144029.43   -2792.3974 
   34500    484.42822   -146033.12            0   -144029.43   -2783.5562 
   34600    487.64441   -146046.42            0   -144029.43   -2899.3418 
   34700    488.67466   -146050.63            0   -144029.37   -2869.4721 
   34800    488.26675   -146048.95            0   -144029.38   -2859.9045 
   34900    487.68888   -146046.56            0   -144029.39    -2849.062 
   35000    488.65855   -146050.55            0   -144029.36   -2856.8054 
   35100    488.32567   -146049.14            0   -144029.33   -2839.8803 
   35200    487.90129   -146047.35            0    -144029.3   -2832.1894 
   35300    486.75823   -146042.62            0   -144029.29   -2812.4069 
   35400    486.83211   -146042.94            0   -144029.31   -2729.3616 
   35500    486.21532   -146040.35            0   -144029.26   -2991.8673 
   35600    487.27488   -146044.72            0   -144029.26   -3053.9362 
   35700    491.09069   -146060.51            0   -144029.27   -2750.0155 
   35800     484.6143   -146033.66            0    -144029.2   -2836.4973 
   35900     485.9794   -146039.24            0   -144029.13   -3080.7904 
   36000    488.60976   -146050.15            0   -144029.17   -2821.7525 
   36100    488.40273   -146049.25            0   -144029.12   -2798.0098 
   36200    488.90444    -146051.3            0    -144029.1   -2997.6142 
   36300    487.52035    -146045.6            0   -144029.12   -2939.4124 
   36400    488.35292   -146049.02            0    -144029.1   -3028.1029 
   36500    487.65962   -146046.11            0   -144029.05   -2863.0958 
   36600    486.79019   -146042.49            0   -144029.03   -2883.3451 
   36700    485.89969   -146038.82            0   -144029.05   -3069.8124 
   36800     489.0849   -146051.97            0   -144029.02   -2833.6171 
   36900    485.49899   -146037.14            0   -144029.03   -2988.8889 
   37000    487.55062   -146045.62            0   -144029.01   -2856.7378 
   37100    487.82737   -146046.74            0   -144028.99   -2808.2128 
   37200    487.87898   -146046.97            0   -144029.01   -2904.0348 
   37300    485.12136   -146035.55            0   -144028.99   -3040.7956 
   37400    489.91598   -146055.38            0   -144028.99    -2785.997 
   37500    486.95319   -146043.06            0   -144028.93   -2927.6685 
   37600    489.73822   -146054.61            0   -144028.95   -2952.8996 
   37700    486.25153   -146040.15            0   -144028.92   -2941.9236 
   37800    490.40409   -146057.37            0   -144028.96   -2822.7669 
   37900    490.68303   -146058.51            0   -144028.95   -3052.0562 
   38000    489.33163   -146052.94            0   -144028.97   -2770.2455 
   38100      487.315   -146044.53            0    -144028.9   -2936.7035 
   38200    487.82238   -146046.62            0   -144028.89   -2890.6723 
   38300     487.6828   -146046.03            0   -144028.88   -3040.4056 
   38400    487.78169   -146046.42            0   -144028.86   -2996.9968 
   38500    485.69232   -146037.75            0   -144028.83   -2796.6975 
   38600    488.48736   -146049.28            0    -144028.8   -2948.3355 
   38700    488.95172    -146051.2            0    -144028.8   -2803.5687 
   38800    485.45016   -146036.64            0   -144028.72   -2977.6756 
   38900    489.62049   -146053.91            0   -144028.74   -2833.8603 
   39000     486.1147   -146039.39            0   -144028.73   -3089.6477 
   39100    488.04799   -146047.36            0    -144028.7   -2926.3317 
   39200    487.22295   -146043.97            0   -144028.72   -2882.6864 
   39300    487.93338   -146046.88            0   -144028.69   -3017.0139 
   39400    488.09259   -146047.52            0   -144028.67    -2834.172 
   39500    485.82099   -146038.06            0   -144028.61   -3020.9679 
   39600    488.08472   -146047.39            0   -144028.58   -3002.1679 
   39700    486.03543   -146038.95            0   -144028.61    -3067.949 
   39800     487.1832   -146043.68            0    -144028.6   -2925.9549 
   39900     484.9153   -146034.31            0    -144028.6   -3243.5414 
   40000     485.2257   -146035.55            0   -144028.56   -2816.8851 
   40100    487.23755   -146043.89            0   -144028.58   -3080.3942 
   40200    485.94531   -146038.52            0   -144028.56   -2961.4081 
   40300     488.4091   -146048.72            0   -144028.56    -2978.741 
   40400     488.9276   -146050.85            0   -144028.55   -2997.5518 
   40500    489.69011   -146054.06            0    -144028.6   -2996.6268 
   40600    487.90717   -146046.67            0   -144028.59   -2923.3533 
   40700    490.06081   -146055.59            0   -144028.61   -2914.4311 
   40800    483.89781   -146030.05            0   -144028.56   -3072.9888 
   40900    490.08304   -146055.65            0   -144028.58   -2903.3352 
   41000    487.97999   -146046.93            0   -144028.55   -3002.2539 
   41100    487.10119   -146043.28            0   -144028.53    -2921.067 
   41200    488.98323   -146051.06            0   -144028.53   -3132.2752 
   41300     489.4604      -146053            0    -144028.5   -2873.4849 
   41400    486.42208   -146040.39            0   -144028.45   -3125.5806 
   41500    489.38978    -146052.7            0   -144028.49   -2937.7718 
   41600    487.15489   -146043.42            0   -144028.45   -3027.5942 
   41700    487.20114   -146043.53            0   -144028.37   -3060.3786 
   41800    487.04543   -146042.88            0   -144028.36   -2946.5472 
   41900    486.86351   -146042.19            0   -144028.43   -3136.3082 
   42000    486.33158   -146039.97            0    -144028.4   -2943.5071 
   42100    488.02981      -146047            0   -144028.41   -3041.0521 
   42200    487.49651   -146044.83            0   -144028.45   -2980.1333 
   42300    488.57128   -146049.29            0   -144028.46   -3169.4381 
   42400    487.78282   -146046.07            0   -144028.51   -2965.4455 
   42500    487.98913   -146046.92            0   -144028.51   -3022.7859 
   42600    486.70812   -146041.59            0   -144028.47   -3072.0618 
   42700     491.3653   -146060.83            0   -144028.45   -2902.2492 
   42800     487.2747   -146043.87            0   -144028.41   -3187.2059 
   42900    490.07883   -146055.49            0   -144028.43   -2859.7626 
   43000    488.06323   -146047.14            0   -144028.42   -3109.3216 
   43100    489.65832   -146053.75            0   -144028.43   -3083.0408 
   43200     487.7004   -146045.64            0   -144028.41   -3209.5354 
   43300       487.09   -146043.11            0   -144028.41   -3135.8244 
   43400    486.58369   -146041.02            0   -144028.41   -3059.0096 
   43500     487.6519   -146045.42            0    -144028.4    -3137.203 
   43600    487.13124   -146043.25            0   -144028.38   -3106.9056 
   43700    484.96723   -146034.31            0   -144028.39   -3241.9957 
   43800    489.67332   -146053.84            0   -144028.45   -3210.7992 
   43900    489.15058   -146051.64            0   -144028.42   -3074.9242 
   44000    489.18946   -146051.81            0   -144028.43   -3227.2502 
   44100    488.26617      -146048            0   -144028.43   -3141.5959 
   44200    486.88125   -146042.27            0   -144028.43   -3154.1808 
   44300    486.66395   -146041.35            0   -144028.41   -3055.7063 
   44400    485.40201   -146036.11            0   -144028.39   -3213.7692 
   44500    491.65345   -146061.97            0    -144028.4   -2962.3375 
   44600      485.727   -146037.46            0    -144028.4    -3248.082 
   44700    489.95062   -146054.92            0   -144028.39   -3079.1249 
   44800    489.04805   -146051.25            0   -144028.45   -3224.1567 
   44900    486.12471   -146039.14            0   -144028.43   -3157.5975 
   45000    489.02568   -146051.13            0   -144028.42    -3036.599 
   45100    487.41215   -146044.39            0   -144028.36   -3158.2645 
   45200    485.79434    -146037.7            0   -144028.36   -3129.2446 
   45300    488.57143   -146049.17            0   -144028.35    -3027.249 
   45400    489.08678   -146051.29            0   -144028.33   -3053.5437 
   45500    487.71476   -146045.61            0   -144028.33   -3254.7509 
   45600     489.4621   -146052.83            0   -144028.32   -3116.6588 
   45700    484.97463   -146034.23            0   -144028.28   -3206.0459 
   45800    491.64892   -146061.86            0   -144028.31   -2988.3756 
   45900    483.39781   -146027.69            0   -144028.27   -3237.1082 
   46000    488.79319   -146049.99            0   -144028.25    -2988.706 
   46100    489.35243   -146052.33            0   -144028.27    -3100.801 
   46200    486.91801   -146042.29            0    -144028.3   -3206.5925 
   46300    490.22139   -146055.98            0   -144028.33   -3149.6794 
   46400    487.73026   -146045.71            0   -144028.36   -3078.3854 
   46500    488.99901   -146050.94            0   -144028.35   -2973.7224 
   46600    487.02075   -146042.73            0   -144028.32   -3129.8782 
   46700    487.87845    -146046.3            0   -144028.34   -2930.6991 
   46800    487.02128   -146042.77            0   -144028.35   -3012.8214 
   46900    490.30597   -146056.38            0   -144028.38   -3080.0301 
   47000    486.71579   -146041.53            0   -144028.38   -3254.2477 
   47100    490.20869   -146055.97            0   -144028.37   -3130.1222 
   47200     488.2708    -146047.9            0   -144028.31   -3165.6421 
   47300    486.48176   -146040.46            0   -144028.28   -3219.9041 
   47400    490.63032   -146057.63            0   -144028.29   -3236.4901 
   47500     489.6518   -146053.56            0   -144028.26   -3065.3877 
   47600    485.49838   -146036.37            0   -144028.26   -3087.0085 
   47700    490.20339   -146055.88            0    -144028.3   -3039.0674 
   47800    488.04079   -146046.92            0   -144028.28   -3172.0789 
   47900    491.08462   -146059.53            0   -144028.31   -3229.2449 
   48000    492.06951    -146063.6            0    -144028.3   -2997.7275 
   48100    486.12509   -146039.02            0   -144028.31   -3324.4757 
   48200    486.35703   -146039.98            0   -144028.31   -3039.0302 
   48300    487.25671   -146043.67            0   -144028.29   -3085.6955 
   48400    485.04462    -146034.5            0   -144028.26   -3245.1433 
   48500    488.79942   -146050.05            0   -144028.28    -3117.687 
   48600    487.20305   -146043.42            0   -144028.25   -3008.6174 
   48700    486.48227   -146040.44            0   -144028.26   -3100.3076 
   48800    489.73659   -146053.95            0   -144028.31   -3015.5582 
   48900    488.53672   -146048.98            0    -144028.3   -3240.5362 
   49000      487.849   -146046.12            0   -144028.28   -3043.2498 
   49100    488.64917   -146049.45            0    -144028.3   -2931.3755 
   49200    485.42503    -146036.1            0   -144028.28    -3195.342 
   49300    488.42364    -146048.5            0   -144028.29   -2939.6642 
   49400    486.93041   -146042.31            0   -144028.27   -3010.1649 
   49500    488.96176   -146050.71            0   -144028.27    -3075.174 
   49600    487.82269   -146046.03            0    -144028.3   -3103.4196 
   49700    490.20025   -146055.93            0   -144028.36   -3125.4436 
   49800    487.41661   -146044.44            0   -144028.39   -3142.7863 
   49900    490.42427   -146056.89            0    -144028.4   -3258.7274 
   50000    489.42995   -146052.71            0   -144028.33   -2852.3093 
   50100    485.23787   -146035.36            0   -144028.32   -3261.8545 
   50200    487.75163   -146045.77            0   -144028.33   -3000.2544 
   50300    489.87093   -146054.53            0   -144028.33     -2968.66 
   50400    486.37004   -146040.08            0   -144028.36    -3107.664 
   50500    485.21691   -146035.28            0   -144028.33   -3061.8973 
   50600    488.86256   -146050.36            0   -144028.33   -2797.5868 
   50700    484.23675   -146031.21            0   -144028.32   -3191.3573 
   50800    488.05809   -146047.03            0   -144028.33   -2915.5959 
   50900    486.83273   -146041.97            0   -144028.34   -2938.4368 
   51000    486.22251   -146039.42            0   -144028.31   -2984.2346 
   51100    490.04605   -146055.24            0   -144028.31   -2975.7628 
   51200    485.45518   -146036.22            0   -144028.28   -3157.5241 
   51300    488.95203    -146050.7            0    -144028.3   -2938.6286 
   51400    486.22147    -146039.4            0    -144028.3   -3096.7911 
   51500    486.94445    -146042.4            0    -144028.3   -3002.9777 
   51600    486.75526   -146041.66            0   -144028.35   -2975.1703 
   51700    488.69442   -146049.66            0   -144028.33   -2974.8947 
   51800    487.65859   -146045.33            0   -144028.28   -2952.6694 
   51900     488.0949   -146047.14            0   -144028.29   -2987.9457 
   52000    490.64814   -146057.73            0   -144028.32    -2933.076 
   52100    489.48239   -146052.92            0   -144028.32   -3071.0234 
   52200    488.01272   -146046.85            0   -144028.34   -3063.3565 
   52300    489.02543   -146051.03            0   -144028.33   -2883.4329 
   52400    486.81888   -146041.92            0   -144028.34   -2892.2131 
   52500    487.00149   -146042.65            0   -144028.31   -2915.1942 
   52600    490.71587   -146058.06            0   -144028.36   -2958.0117 
   52700    489.00517   -146050.96            0   -144028.33   -3072.0681 
   52800     490.0489   -146055.26            0   -144028.32   -3038.1378 
   52900    488.58496   -146049.19            0   -144028.31   -3062.9864 
   53000    491.28987   -146060.41            0   -144028.34   -2968.7135 
   53100    487.52149   -146044.79            0   -144028.31   -3015.9893 
   53200    489.08856   -146051.24            0   -144028.27   -2943.1136 
   53300    489.99966      -146055            0   -144028.27   -2983.3202 
   53400    492.09432   -146063.69            0   -144028.29    -2955.637 
   53500    487.16632   -146043.27            0   -144028.26   -3052.7504 
   53600    490.36439   -146056.47            0   -144028.22   -2890.8009 
   53700    486.71131   -146041.39            0   -144028.26   -3097.6704 
   53800    491.31172   -146060.46            0    -144028.3   -2895.2651 
   53900    488.07453   -146047.07            0    -144028.3    -2965.818 
   54000    488.77881   -146049.96            0   -144028.27   -3079.1413 
   54100    488.36657   -146048.24            0   -144028.26    -3096.701 
   54200    488.91738    -146050.5            0   -144028.24   -2917.3796 
   54300    488.81613    -146050.1            0   -144028.26   -3050.6517 
   54400    487.88905   -146046.22            0   -144028.22   -2977.6312 
   54500    487.83674      -146046            0   -144028.21   -3053.4454 
   54600    487.79456   -146045.84            0   -144028.23   -2876.4423 
   54700    487.87698   -146046.19            0   -144028.24   -2945.1796 
   54800    490.80557   -146058.32            0   -144028.26   -3125.5244 
   54900    490.46431   -146056.93            0   -144028.28   -2906.9954 
   55000    489.17361   -146051.62            0   -144028.31   -3110.1458 
   55100    489.05373   -146051.14            0   -144028.32   -2920.2148 
   55200    487.69627    -146045.5            0    -144028.3   -3153.4451 
   55300    487.94294   -146046.51            0   -144028.28    -2792.652 
   55400     487.5039   -146044.69            0   -144028.28   -3113.9093 
   55500    490.67489    -146057.8            0   -144028.28   -2910.6023 
   55600    487.80239   -146045.92            0   -144028.28   -2955.8186 
   55700    488.56355   -146049.09            0    -144028.3   -2945.6458 
   55800    487.12712   -146043.13            0   -144028.27   -2804.0857 
   55900    488.06632      -146047            0   -144028.27   -2908.9641 
   56000    487.24464   -146043.59            0   -144028.25   -2992.2711 
   56100    488.28894   -146047.89            0   -144028.23    -2952.632 
   56200    488.18062   -146047.41            0   -144028.19   -2906.5234 
   56300    487.02159   -146042.62            0   -144028.21    -2994.731 
   56400    486.50536   -146040.52            0   -144028.24   -2940.8197 
   56500    487.54373   -146044.75            0   -144028.18   -2992.3466 
   56600    486.77302   -146041.54            0   -144028.15   -3003.8198 
   56700    487.28579   -146043.63            0   -144028.12   -3074.5466 
   56800    488.49247   -146048.65            0   -144028.15   -3026.4344 
   56900    487.53519   -146044.68            0   -144028.14    -2930.066 
   57000    486.64794   -146041.02            0   -144028.15   -3099.4454 
   57100    489.36404    -146052.3            0    -144028.2   -3030.0804 
   57200     489.3556   -146052.22            0   -144028.15    -2945.169 
   57300    488.16487   -146047.28            0   -144028.13   -2995.7687 
   57400    484.69458   -146032.93            0   -144028.14   -3076.3677 
   57500    486.15378   -146038.94            0   -144028.11   -2863.0994 
   57600    488.71963   -146049.54            0    -144028.1   -3037.6215 
   57700    487.97029   -146046.37            0   -144028.03    -2855.954 
   57800    488.04044   -146046.66            0   -144028.03   -3032.9893 
   57900     487.4363   -146044.14            0      -144028   -2963.6538 
   58000     486.5872   -146040.62            0      -144028    -2958.303 
   58100    489.48627   -146052.61            0      -144028   -3055.5954 
   58200    487.34447   -146043.74            0   -144027.99   -3033.5786 
   58300    488.18169   -146047.19            0   -144027.97   -2931.7621 
   58400    487.82248   -146045.73            0      -144028   -3067.3963 
   58500    487.38321    -146043.9            0   -144027.98   -2990.6853 
   58600    487.26068   -146043.38            0   -144027.97   -2960.8734 
   58700     486.0716   -146038.42            0   -144027.93   -3038.0171 
   58800    490.63752   -146057.33            0   -144027.96    -2893.564 
   58900    488.68253   -146049.25            0   -144027.97   -3077.1111 
   59000    490.98112   -146058.79            0   -144027.99   -3138.1147 
   59100    490.78881   -146057.98            0   -144027.98   -2868.3043 
   59200    488.96141   -146050.43            0   -144027.99   -3075.0593 
   59300    487.24924   -146043.34            0   -144027.98   -2898.9397 
   59400    489.84696   -146054.07            0   -144027.96   -2855.8624 
   59500    489.31487   -146051.89            0   -144027.98   -3134.8937 
   59600    489.56165   -146052.85            0   -144027.92   -2948.2172 
   59700    487.10736   -146042.65            0   -144027.88   -2831.6259 
   59800    487.42166   -146043.95            0   -144027.88   -2957.5414 
   59900    486.88158   -146041.73            0    -144027.9   -2968.8635 
   60000    488.14266   -146046.96            0    -144027.9   -3030.2006 
   60100    488.48176   -146048.35            0   -144027.89   -2884.0886 
   60200    484.75398   -146032.91            0   -144027.87   -3016.7586 
   60300    486.07167   -146038.35            0   -144027.86   -2876.0413 
   60400    487.27331   -146043.29            0   -144027.84   -2953.5219 
   60500    488.77266   -146049.49            0   -144027.83   -3082.1973 
   60600    488.66047   -146049.01            0   -144027.82   -2928.7299 
   60700    488.55899   -146048.62            0   -144027.84   -2964.2157 
   60800    488.87971   -146049.93            0   -144027.83   -3074.2768 
   60900    488.29902   -146047.52            0   -144027.82   -2966.3283 
   61000    489.94291   -146054.34            0   -144027.84     -3010.34 
   61100    483.93932   -146029.46            0    -144027.8   -3078.4686 
   61200    490.01545   -146054.59            0   -144027.79    -2924.783 
   61300    485.12683   -146034.31            0   -144027.73   -3110.0084 
   61400    486.38526   -146039.51            0   -144027.73   -3048.2912 
   61500    488.09483   -146046.59            0   -144027.74   -3049.7307 
   61600     487.8047   -146045.38            0   -144027.73   -2969.3809 
   61700    488.37843   -146047.76            0   -144027.74    -3217.865 
   61800     489.2515    -146051.4            0   -144027.76   -3108.6744 
   61900    488.64955   -146048.86            0   -144027.71   -3059.3198 
   62000    488.53796   -146048.39            0    -144027.7   -3032.9667 
   62100    487.53882   -146044.25            0    -144027.7    -3169.043 
   62200    488.36282   -146047.66            0   -144027.69    -2991.499 
   62300    487.40103   -146043.69            0    -144027.7   -3193.4239 
   62400    488.83261    -146049.6            0   -144027.69    -3075.879 
   62500    488.11042   -146046.57            0   -144027.65   -3020.7105 
   62600      489.368   -146051.73            0   -144027.61   -3104.1065 
   62700    490.49197   -146056.39            0   -144027.62   -2929.0872 
   62800    490.53186   -146056.51            0   -144027.58   -3254.6943 
   62900    488.32976   -146047.37            0   -144027.55   -3016.8605 
   63000    489.44593   -146052.01            0   -144027.57   -3107.0819 
   63100    485.67108   -146036.38            0   -144027.55   -3105.6638 
   63200    488.58005   -146048.45            0   -144027.59   -3011.0644 
   63300     487.5485   -146044.15            0   -144027.56   -3060.9303 
   63400     486.1235   -146038.22            0   -144027.51   -2979.2263 
   63500    486.84087   -146041.19            0   -144027.52   -3145.6917 
   63600    489.04493   -146050.34            0   -144027.55   -3003.0363 
   63700    489.95495   -146054.13            0   -144027.58    -3054.216 
   63800    485.80322   -146036.92            0   -144027.54   -3221.2884 
   63900    490.26858   -146055.37            0   -144027.52   -2931.3076 
   64000    486.00324    -146037.7            0    -144027.5    -3107.926 
   64100    489.55226   -146052.37            0   -144027.49   -2967.2581 
   64200    486.54112    -146039.9            0   -144027.47   -3014.1267 
   64300     488.3929   -146047.55            0   -144027.46   -3035.3576 
   64400    486.53418   -146039.85            0   -144027.45   -3111.9425 
   64500    488.99105      -146050            0   -144027.44   -2947.6866 
   64600    487.04137    -146041.9            0    -144027.4   -2993.4752 
   64700    490.12839    -146054.7            0   -144027.43   -2947.2142 
   64800    487.21329   -146042.61            0    -144027.4   -2953.0461 
   64900    490.49296   -146056.14            0   -144027.36   -2992.1131 
   65000    488.00731   -146045.86            0   -144027.37   -3087.3379 
   65100    489.74698   -146053.04            0   -144027.35    -2826.864 
   65200    486.88122    -146041.2            0   -144027.37   -3046.5314 
   65300    487.81987   -146045.06            0   -144027.35   -2953.0307 
   65400    489.30697    -146051.2            0   -144027.33   -2895.1795 
   65500     488.1326   -146046.37            0   -144027.35   -3026.0879 
   65600    490.72891   -146057.08            0   -144027.33   -2928.5365 
   65700    487.23383   -146042.63            0   -144027.33   -2985.2525 
   65800    488.48754   -146047.79            0   -144027.31   -2962.7428 
   65900    488.35378   -146047.16            0   -144027.24   -2793.7646 
   66000    486.40219   -146039.11            0   -144027.25   -3069.4365 
   66100    488.93895   -146049.64            0   -144027.29   -3098.6851 
   66200    491.32487    -146059.5            0   -144027.28   -2805.5951 
   66300    488.20714    -146046.6            0   -144027.28   -3091.6296 
   66400    490.00037   -146054.02            0   -144027.29   -3032.8946 
   66500    488.56704   -146048.07            0   -144027.26    -2799.086 
   66600    487.97467   -146045.62            0   -144027.26   -3051.5971 
   66700    488.75478   -146048.83            0   -144027.24   -2810.2311 
   66800     487.8467   -146045.09            0   -144027.26    -3011.994 
   66900    488.85836   -146049.25            0   -144027.24   -2925.1274 
   67000    486.36672   -146038.92            0   -144027.22   -3029.7248 
   67100    490.16951   -146054.68            0   -144027.24    -3039.062 
   67200    489.97454   -146053.89            0   -144027.26   -2905.9137 
   67300    487.49421   -146043.64            0   -144027.27   -2984.4033 
   67400    490.07275   -146054.29            0   -144027.26   -2878.0427 
   67500    486.45874   -146039.35            0   -144027.26   -2962.4043 
   67600    488.84431   -146049.21            0   -144027.25   -2848.7192 
   67700    489.21592   -146050.74            0   -144027.25   -2954.0942 
   67800    488.03381   -146045.86            0   -144027.26   -2962.0847 
   67900    487.99085   -146045.68            0   -144027.25   -3026.5247 
   68000     489.6059   -146052.42            0   -144027.32   -3049.1594 
   68100     487.1084   -146042.02            0   -144027.25   -2988.6601 
   68200    488.76175   -146048.92            0   -144027.31   -3058.1409 
   68300    488.09976   -146046.14            0   -144027.27   -2925.3853 
   68400    489.08364   -146050.21            0   -144027.26   -3078.6329 
   68500    487.30195   -146042.82            0   -144027.24   -2877.2918 
   68600    486.87376   -146041.07            0   -144027.27   -2856.4049 
   68700    487.54299   -146043.87            0    -144027.3   -2980.0091 
   68800    487.90456   -146045.33            0   -144027.26   -2934.8795 
   68900    488.11472   -146046.18            0   -144027.24   -2902.9835 
   69000    486.56643   -146039.75            0   -144027.22   -2943.8601 
   69100    486.70407   -146040.33            0   -144027.22   -3047.8791 
   69200    488.08317      -146046            0   -144027.19   -2734.7747 
   69300    489.79826   -146053.12            0   -144027.22   -3111.7497 
   69400    490.09919   -146054.37            0   -144027.23    -2822.189 
   69500    486.91783   -146041.16            0   -144027.17   -2946.7035 
   69600    485.77512   -146036.36            0    -144027.1   -2852.1483 
   69700    485.52351    -146035.3            0   -144027.08   -2969.8707 
   69800    490.32308   -146055.11            0   -144027.04   -2947.3076 
   69900    485.04451   -146033.27            0   -144027.03   -3042.0181 
   70000    488.53046    -146047.7            0   -144027.04    -2859.927 
   70100    488.16001   -146046.18            0   -144027.06   -3061.4143 
   70200    487.83984   -146044.84            0   -144027.04   -3001.6498 
   70300    483.42061   -146026.49            0   -144026.97   -3064.8423 
   70400    490.77404   -146056.96            0   -144027.03   -2917.7832 
   70500    486.18297   -146037.92            0   -144026.97   -3079.3556 
   70600    488.17822   -146046.18            0   -144026.98   -2950.6963 
   70700    486.85435   -146040.67            0   -144026.95   -3177.6749 
   70800    489.00078   -146049.58            0   -144026.97    -2847.524 
   70900    487.83263   -146044.72            0   -144026.95   -3030.0992 
   71000    487.50912   -146043.32            0   -144026.89   -2991.6136 
   71100    491.76913   -146060.96            0   -144026.91   -2884.8867 
   71200    487.98915   -146045.29            0   -144026.87   -3023.3664 
   71300    489.56978   -146051.84            0   -144026.88   -2894.5518 
   71400    488.72541   -146048.35            0   -144026.89   -3135.8567 
   71500    489.21586   -146050.37            0   -144026.88   -2902.5247 
   71600    486.56848   -146039.41            0   -144026.87   -2900.3286 
   71700    485.20196   -146033.73            0   -144026.84   -2965.5801 
   71800    489.46657   -146051.39            0   -144026.86   -2851.0141 
   71900    486.18019   -146037.81            0   -144026.87   -3064.6076 
   72000    486.03046   -146037.21            0   -144026.89   -3016.0678 
   72100    489.57586   -146051.86            0   -144026.88    -2972.676 
   72200    488.84636   -146048.83            0   -144026.87   -2995.4309 
   72300    486.88023   -146040.72            0   -144026.89   -3025.7622 
   72400    488.48968   -146047.37            0   -144026.88   -2864.7485 
   72500    489.75589   -146052.62            0   -144026.89   -3064.7431 
   72600    489.48048   -146051.43            0   -144026.84   -2797.5824 
   72700    485.86577   -146036.48            0   -144026.85   -3102.9557 
   72800    488.51246    -146047.4            0   -144026.82   -2825.2812 
   72900    488.57332   -146047.62            0   -144026.79   -2975.3938 
   73000    486.86175   -146040.54            0   -144026.79   -3012.9545 
   73100    486.97105   -146040.99            0   -144026.78   -2960.2054 
   73200    486.77427   -146040.18            0   -144026.78   -2893.7882 
   73300    488.00875   -146045.31            0   -144026.81   -2956.2664 
   73400    485.95023   -146036.79            0    -144026.8   -3020.2095 
   73500    485.62344   -146035.42            0   -144026.78   -2943.0637 
   73600    488.29018   -146046.43            0   -144026.76   -2800.5279 
   73700    488.32204   -146046.53            0   -144026.73   -2999.5755 
   73800    485.86196   -146036.34            0   -144026.72   -3045.8427 
   73900    487.38795   -146042.61            0   -144026.68   -2863.1934 
   74000    486.13112   -146037.42            0   -144026.68    -2941.086 
   74100    489.07215   -146049.61            0   -144026.72   -3055.3635 
   74200    489.80422   -146052.62            0   -144026.69   -2973.5991 
   74300    486.98761   -146040.97            0    -144026.7   -3021.4869 
   74400     490.3333   -146054.78            0   -144026.66   -2767.6507 
   74500    485.10953   -146033.15            0   -144026.64   -3030.8777 
   74600     489.0404   -146049.39            0   -144026.62   -2873.4219 
   74700    488.96417   -146049.05            0    -144026.6   -2896.0602 
   74800    488.06555   -146045.33            0    -144026.6   -3174.3121 
   74900    491.75448   -146060.59            0    -144026.6   -2834.2274 
   75000    483.72944   -146027.37            0   -144026.57   -3178.7417 
   75100    489.00009   -146049.18            0   -144026.58   -2804.7444 
   75200    487.63452   -146043.52            0   -144026.57   -2834.2433 
   75300    487.67895   -146043.73            0   -144026.59   -3184.4019 
   75400    488.47725   -146046.99            0   -144026.55   -2858.9236 
   75500    485.87326   -146036.17            0   -144026.51   -2890.4537 
   75600    485.04179    -146032.7            0   -144026.47   -2998.1264 
   75700    485.24385   -146033.54            0   -144026.47   -2677.8846 
   75800    486.43838   -146038.45            0   -144026.45   -2938.8696 
   75900    489.87007   -146052.69            0   -144026.49   -2766.7576 
   76000    484.84354   -146031.88            0   -144026.47   -3071.6343 
   76100    489.15155   -146049.71            0   -144026.49   -3027.9851 
   76200    492.55067   -146063.82            0   -144026.53   -2881.3441 
   76300    487.24969   -146041.87            0   -144026.51   -3073.5693 
   76400    490.73092   -146056.29            0   -144026.53   -2813.9375 
   76500    487.28229   -146042.01            0   -144026.51   -3136.3354 
   76600    489.15158   -146049.67            0   -144026.45   -2710.0596 
   76700    487.79321   -146044.03            0   -144026.42   -3103.3157 
   76800    489.20552    -146049.9            0   -144026.45   -2858.3551 
   76900    489.92593   -146052.83            0    -144026.4   -3045.2228 
   77000    487.39693   -146042.33            0   -144026.37   -2941.8108 
   77100     487.5547   -146042.96            0   -144026.34   -2955.3616 
   77200    486.06243   -146036.78            0   -144026.34   -3111.7828 
   77300    489.98712   -146053.02            0   -144026.34   -2924.0175 
   77400    488.22483   -146045.73            0   -144026.34   -2969.0552 
   77500    487.65146   -146043.34            0   -144026.32   -3029.6678 
   77600     488.1376   -146045.33            0   -144026.29    -2961.943 
   77700    489.27281   -146050.03            0    -144026.3   -2998.5676 
   77800    488.64514   -146047.42            0   -144026.29   -3198.2096 
   77900    488.67277   -146047.48            0   -144026.23   -2866.5784 
   78000    489.15656   -146049.49            0   -144026.25   -2992.7032 
   78100    483.82462   -146027.43            0   -144026.24   -3106.3298 
   78200    490.51149   -146055.16            0   -144026.31   -2898.8053 
   78300    487.75053   -146043.73            0    -144026.3   -3103.9239 
   78400    488.65829   -146047.49            0    -144026.3   -2977.7269 
   78500    487.49713   -146042.67            0   -144026.29   -2938.4104 
   78600    487.47929   -146042.61            0    -144026.3   -3169.1524 
   78700    489.24463   -146049.92            0   -144026.31    -2991.829 
   78800    490.41289   -146054.76            0   -144026.32   -2926.0643 
   78900    485.98326   -146036.41            0   -144026.29   -3077.1715 
   79000    491.72644    -146060.2            0   -144026.32   -2993.0598 
   79100      489.162   -146049.59            0   -144026.33   -3050.2186 
   79200    489.89168   -146052.63            0   -144026.34     -3028.26 
   79300    489.97714   -146052.99            0   -144026.35   -2967.5551 
   79400    489.81216   -146052.33            0   -144026.38    -3150.529 
   79500    488.57528   -146047.22            0   -144026.38    -2937.416 
   79600    487.96515   -146044.73            0   -144026.41   -3109.0424 
   79700    490.03112   -146053.29            0   -144026.43   -2899.7722 
   79800    488.60045   -146047.38            0   -144026.43   -3054.4662 
   79900    490.18681   -146053.91            0    -144026.4   -2994.5856 
   80000    487.84123   -146044.19            0   -144026.38   -3083.3439 
   80100    488.90071   -146048.56            0   -144026.37   -2978.4874 
   80200    487.16228   -146041.35            0   -144026.35   -3088.3234 
   80300    488.23959    -146045.8            0   -144026.35   -2934.4147 
   80400    488.24111    -146045.8            0   -144026.34   -3093.8908 
   80500    488.61069   -146047.32            0   -144026.33   -2985.9895 
   80600    488.63175    -146047.4            0   -144026.32   -3072.4719 
   80700    488.63915   -146047.38            0   -144026.28   -2844.4088 
   80800    486.71742   -146039.44            0   -144026.28   -3195.2465 
   80900    489.48824   -146050.86            0   -144026.25   -3045.0827 
   81000    486.25151   -146037.46            0   -144026.22   -3204.9151 
   81100    486.95447   -146040.38            0   -144026.24   -3046.8206 
   81200    487.09455   -146040.96            0   -144026.24   -2839.5304 
   81300    486.01712   -146036.54            0   -144026.27   -3147.7373 
   81400     490.8543   -146056.56            0   -144026.29   -2980.0483 
   81500    490.71893   -146055.98            0   -144026.27   -3030.3321 
   81600    485.75004   -146035.41            0   -144026.26   -3064.8486 
   81700    487.76696   -146043.75            0   -144026.26   -2993.7309 
   81800     486.9819    -146040.5            0   -144026.25   -2866.3156 
   81900    486.30914   -146037.73            0   -144026.26   -2923.4147 
   82000     492.0727   -146061.59            0   -144026.28    -3027.371 
   82100    487.24611   -146041.58            0   -144026.23   -3111.6579 
   82200    490.56623   -146055.29            0   -144026.21   -2898.0376 
   82300    487.80607   -146043.86            0    -144026.2   -3112.2322 
   82400    487.95566   -146044.48            0    -144026.2   -3127.8123 
   82500     488.8704   -146048.26            0    -144026.2   -2970.2828 
   82600    487.03349   -146040.64            0   -144026.18   -3153.0936 
   82700    488.72581   -146047.59            0   -144026.12   -2935.3402 
   82800    486.17675   -146037.03            0   -144026.11   -3210.8249 
   82900    488.72763   -146047.63            0   -144026.16   -2863.7986 
   83000    488.47086   -146046.56            0   -144026.15   -2849.7541 
   83100    485.80351    -146035.5            0   -144026.12   -3088.9437 
   83200    486.56228   -146038.65            0   -144026.14   -2975.5228 
   83300     487.8734   -146044.06            0   -144026.12   -3097.5478 
   83400    487.95767   -146044.43            0   -144026.14   -3014.1694 
   83500     488.5065   -146046.68            0   -144026.12   -3153.8702 
   83600    489.02564   -146048.82            0   -144026.11   -3076.6078 
   83700    487.59966   -146042.85            0   -144026.04   -2949.2509 
   83800    485.15007   -146032.72            0   -144026.04   -3142.4138 
   83900    489.32857      -146050            0   -144026.05   -3011.2107 
   84000    486.89018   -146039.91            0   -144026.04   -3097.1968 
   84100    488.74015   -146047.58            0   -144026.06   -2928.9698 
   84200    486.89958   -146039.96            0   -144026.05   -3010.7484 
   84300    487.30457   -146041.61            0   -144026.03   -3019.1558 
   84400    487.40922   -146042.03            0   -144026.01   -2973.7853 
   84500    488.18601   -146045.24            0      -144026   -2951.3883 
   84600    486.74779    -146039.3            0   -144026.02   -2931.9297 
   84700    487.05463   -146040.55            0      -144026   -2799.4323 
   84800    485.55215   -146034.37            0   -144026.03   -2849.8986 
   84900    489.49886   -146050.75            0   -144026.08   -2856.3748 
   85000    489.71495    -146051.6            0   -144026.04    -2961.099 
   85100    488.04376   -146044.68            0   -144026.03   -3073.0052 
   85200    491.90598   -146060.66            0   -144026.04   -2865.8012 
   85300     489.4179   -146050.41            0   -144026.08   -3125.0475 
   85400    487.78046   -146043.57            0   -144026.02   -2873.1075 
   85500    489.96202   -146052.61            0   -144026.03   -3006.6101 
   85600    488.07913   -146044.83            0   -144026.04   -2999.7889 
   85700    486.40918   -146037.92            0   -144026.04   -2988.2841 
   85800    488.45568   -146046.39            0   -144026.04    -2955.571 
   85900    487.55216   -146042.63            0   -144026.02   -2878.4007 
   86000    488.45353   -146046.37            0   -144026.03   -3016.8989 
   86100    487.02793   -146040.44            0      -144026   -2908.8374 
   86200     487.8264   -146043.74            0      -144026   -2967.2466 
   86300     488.6936   -146047.35            0   -144026.02   -2951.6283 
   86400    489.44272   -146050.46            0   -144026.03   -2799.6174 
   86500    487.61172   -146042.86            0      -144026   -2984.5869 
   86600    485.72159   -146034.99            0   -144025.95   -3040.5219 
   86700    488.22902   -146045.35            0   -144025.94   -2775.1316 
   86800    484.32105   -146029.17            0   -144025.93   -3129.7045 
   86900    490.29675   -146053.94            0   -144025.98   -2920.0964 
   87000     487.1538   -146040.92            0   -144025.95   -3083.8027 
   87100    488.60716   -146046.92            0   -144025.94   -2975.3814 
   87200     489.0188    -146048.6            0   -144025.92   -2907.9925 
   87300    488.81306   -146047.74            0   -144025.91   -2955.8714 
   87400     488.3875   -146045.97            0    -144025.9   -3028.7985 
   87500    488.20278   -146045.15            0   -144025.85   -3008.7999 
   87600    489.31955   -146049.79            0   -144025.86    -2878.948 
   87700    488.60056   -146046.82            0   -144025.87   -2892.8514 
   87800    485.35237   -146033.34            0   -144025.83   -3058.2787 
   87900     485.8554   -146035.43            0   -144025.84   -3012.5002 
   88000    491.23782   -146057.69            0   -144025.84   -2784.2846 
   88100    488.04147   -146044.47            0   -144025.83   -3058.1342 
   88200    490.25805   -146053.68            0   -144025.88   -3045.9426 
   88300    488.10923   -146044.77            0   -144025.85   -2964.0837 
   88400    489.11179   -146048.88            0   -144025.82   -2885.8823 
   88500    484.15229   -146028.37            0   -144025.82   -3099.1323 
   88600    487.77757   -146043.37            0   -144025.82   -3047.5359 
   88700       488.24   -146045.25            0   -144025.79   -3124.1682 
   88800    490.05728   -146052.78            0   -144025.81   -2890.0481 
   88900    490.30811   -146053.82            0   -144025.81   -3129.7286 
   89000    488.99913    -146048.4            0    -144025.8   -2951.9081 
   89100    487.18728   -146040.91            0   -144025.81   -2989.0926 
   89200     488.2009   -146045.12            0   -144025.82   -3169.2653 
   89300    489.01117   -146048.42            0   -144025.78   -3007.4768 
   89400    488.08375   -146044.55            0   -144025.74   -3029.9029 
   89500    489.38132   -146049.97            0    -144025.8   -3025.9945 
   89600    486.73365   -146038.96            0   -144025.74   -2984.9411 
   89700    488.23103   -146045.13            0   -144025.71   -2952.9668 
   89800    488.01964   -146044.27            0   -144025.73   -2945.4786 
   89900    487.47552   -146042.04            0   -144025.75   -2978.6132 
   90000    487.83294   -146043.51            0   -144025.74   -3012.7546 
   90100    487.75006   -146043.22            0   -144025.79   -2995.2234 
   90200    487.82296    -146043.5            0   -144025.77   -3029.8995 
   90300    487.68957   -146042.93            0   -144025.75   -3057.2052 
   90400     487.7461   -146043.11            0   -144025.69    -3043.153 
   90500    489.56736   -146050.63            0   -144025.68   -2896.5224 
   90600    487.07005   -146040.32            0   -144025.71   -3175.4074 
   90700    488.31246   -146045.45            0   -144025.69   -3117.1045 
   90800    489.29517   -146049.49            0   -144025.67   -3109.9978 
   90900    487.76152   -146043.13            0   -144025.66   -3072.7209 
   91000    488.94579      -146048            0   -144025.62   -3184.4561 
   91100    486.05089   -146035.98            0   -144025.58   -3016.5735 
   91200    490.92138   -146056.15            0    -144025.6   -3213.5086 
   91300    489.65474   -146050.95            0   -144025.64   -3072.7658 
   91400    487.91769   -146043.75            0   -144025.63     -3178.27 
   91500    487.81843   -146043.33            0   -144025.62   -3164.1131 
   91600    487.31554   -146041.22            0   -144025.59   -3144.3683 
   91700    486.72694    -146038.8            0    -144025.6   -3251.4279 
   91800    488.43483    -146045.9            0   -144025.64   -3069.5986 
   91900    492.65008   -146063.36            0   -144025.66   -3009.3254 
   92000     488.4633   -146046.03            0   -144025.65   -3126.6127 
   92100    488.58983   -146046.54            0   -144025.63   -3071.8919 
   92200    487.88693   -146043.62            0   -144025.63   -3130.9761 
   92300    486.92249   -146039.62            0   -144025.61   -3073.3939 
   92400    489.09256   -146048.62            0   -144025.64   -2971.4995 
   92500     488.1316   -146044.62            0   -144025.61    -3127.949 
   92600    489.68233   -146051.06            0   -144025.64   -3098.8309 
   92700    489.16118   -146048.89            0   -144025.62   -3072.8335 
   92800    488.03922   -146044.23            0   -144025.61   -2988.8474 
   92900    487.35217   -146041.36            0   -144025.58     -3008.38 
   93000    486.54969   -146038.03            0   -144025.57   -3229.7198 
   93100    487.59251   -146042.37            0   -144025.59   -2976.6376 
   93200    488.04698   -146044.24            0   -144025.58   -3097.3469 
   93300    491.29562   -146057.67            0   -144025.57   -2894.8154 
   93400    488.20675   -146044.89            0   -144025.57   -3084.0505 
   93500    486.61958   -146038.28            0   -144025.53   -2959.9693 
   93600    486.36099   -146037.16            0   -144025.48   -3006.0792 
   93700     488.9815      -146048            0   -144025.47   -3075.6224 
   93800    488.21075   -146044.81            0   -144025.47   -3062.4214 
   93900    488.68216   -146046.74            0   -144025.45   -2916.0076 
   94000    487.27452   -146040.92            0   -144025.46   -3055.1439 
   94100    487.93913   -146043.67            0   -144025.46   -3024.6025 
   94200     488.3724   -146045.47            0   -144025.47   -3036.7627 
   94300    489.61871   -146050.63            0   -144025.47   -3061.3191 
   94400    488.71508    -146046.9            0   -144025.48   -2836.4331 
   94500    488.32733   -146045.31            0   -144025.49   -2971.2784 
   94600    488.17009   -146044.67            0    -144025.5   -2990.2053 
   94700    489.66691   -146050.84            0   -144025.48   -3117.7859 
   94800    489.35633   -146049.53            0   -144025.46    -3001.563 
   94900    487.62261   -146042.31            0    -144025.4   -2948.7624 
   95000    488.40558   -146045.55            0   -144025.41   -3038.1832 
   95100    488.17866   -146044.62            0   -144025.41   -3152.1623 
   95200    491.00657   -146056.28            0   -144025.38   -2916.3386 
   95300     485.9119   -146035.16            0   -144025.33   -3007.8944 
   95400    489.07408   -146048.25            0   -144025.34   -3052.2223 
   95500    488.57893    -146046.2            0   -144025.34   -3008.1353 
   95600    489.14289   -146048.53            0   -144025.34   -2910.6589 
   95700    485.77248   -146034.55            0    -144025.3   -2996.3002 
   95800    487.30773   -146040.94            0   -144025.34   -3078.9997 
   95900    489.25818      -146049            0   -144025.33   -2969.9307 
   96000    489.71226   -146050.89            0   -144025.35   -3127.6431 
   96100    490.52697   -146054.28            0   -144025.36     -2982.67 
   96200    489.40927   -146049.62            0   -144025.33   -3060.3258 
   96300    488.01872   -146043.87            0   -144025.33   -3107.8892 
   96400    489.98469   -146052.01            0   -144025.34   -3035.9355 
   96500    490.24439   -146053.06            0   -144025.31   -2818.7083 
   96600    486.93559    -146039.4            0   -144025.34   -3206.6933 
   96700    491.96259   -146060.21            0   -144025.36   -2916.2929 
   96800    488.50054   -146045.91            0   -144025.37    -3064.281 
   96900     487.6632   -146042.45            0   -144025.38   -3065.0082 
   97000    487.02579   -146039.83            0    -144025.4   -2953.6093 
   97100    488.34861    -146045.3            0   -144025.39   -3040.6651 
   97200    489.80863   -146051.31            0   -144025.37   -2963.7383 
   97300    484.92122   -146031.06            0   -144025.33   -3048.1064 
   97400    487.47187   -146041.62            0   -144025.34   -3050.5902 
   97500    488.85979   -146047.41            0   -144025.39   -2955.8471 
   97600    487.71012   -146042.63            0   -144025.37   -2904.5367 
   97700    489.31175   -146049.28            0   -144025.39   -2952.3832 
   97800    486.92537   -146039.38            0   -144025.36   -3184.2081 
   97900    486.76324   -146038.69            0   -144025.34   -2898.5469 
   98000    487.06138   -146039.94            0   -144025.36   -2920.0356 
   98100    489.12642   -146048.47            0   -144025.35   -2940.7917 
   98200    486.92151   -146039.33            0   -144025.32   -3079.0586 
   98300    490.87682   -146055.74            0   -144025.38   -2998.1925 
   98400    490.59085   -146054.55            0   -144025.37   -3224.1802 
   98500    488.23214   -146044.79            0   -144025.37   -2943.2125 
   98600     486.2419   -146036.54            0   -144025.35   -2941.1466 
   98700    489.79104   -146051.22            0   -144025.35   -2887.7475 
   98800    486.94856   -146039.44            0   -144025.33   -3009.4117 
   98900    488.54202   -146046.11            0   -144025.41   -3104.6165 
   99000    490.93392   -146055.99            0   -144025.39   -3087.6622 
   99100    490.04077   -146052.27            0   -144025.37   -3079.9698 
   99200    485.96261   -146035.35            0   -144025.31   -2996.8762 
   99300    486.72962   -146038.47            0   -144025.26   -2974.2985 
   99400    487.11972    -146040.1            0   -144025.27   -2812.5756 
   99500    486.52646   -146037.63            0   -144025.26   -2828.3957 
   99600    486.10546   -146035.92            0    -144025.3   -3059.0018 
   99700    489.73936   -146050.93            0   -144025.27   -2824.3895 
   99800    487.47243   -146041.55            0   -144025.27   -3027.5466 
   99900    488.67362   -146046.52            0   -144025.27   -2874.8584 
  100000    487.26731   -146040.69            0   -144025.26   -2924.4434 
  100100    489.64756   -146050.56            0   -144025.28   -2976.9317 
  100200    487.00516   -146039.63            0   -144025.28   -2830.3322 
  100300    486.44433   -146037.28            0   -144025.26   -2907.6621 
  100400    486.26101   -146036.52            0   -144025.25   -2806.0406 
  100500    488.83324   -146047.17            0   -144025.26   -2809.5458 
  100600    487.49975   -146041.61            0   -144025.22   -2889.2736 
  100700    487.12776   -146040.08            0   -144025.23   -2865.5821 
  100800    489.14475   -146048.43            0   -144025.23   -2903.8003 
  100900    489.20461   -146048.66            0   -144025.22   -2743.6932 
  101000    485.05439   -146031.45            0   -144025.17   -2911.6642 
  101100     491.0641   -146056.33            0    -144025.2    -2829.483 
  101200    488.43145   -146045.41            0   -144025.16   -2945.6738 
  101300    489.11147   -146048.19            0   -144025.13   -2951.3409 
  101400    486.66717   -146038.07            0   -144025.12   -2991.1682 
  101500    486.72016   -146038.26            0   -144025.09   -2963.8788 
  101600    489.60646   -146050.21            0   -144025.11   -2589.6448 
  101700    486.77403   -146038.52            0   -144025.13   -3057.7863 
  101800    486.19672    -146036.1            0    -144025.1   -2938.7957 
  101900    487.99497   -146043.57            0   -144025.13   -2926.6161 
  102000    489.71928   -146050.71            0   -144025.14     -2815.06 
  102100    488.67969   -146046.41            0   -144025.13   -2956.0321 
  102200    486.27462   -146036.48            0   -144025.15   -3106.4025 
  102300    492.06782   -146060.45            0   -144025.16    -2734.337 
  102400    486.98019   -146039.35            0   -144025.11   -3096.5751 
  102500    489.82397   -146051.15            0   -144025.14   -2958.6523 
  102600    489.66988   -146050.47            0    -144025.1   -2865.1714 
  102700    488.30574   -146044.82            0   -144025.09   -2961.1323 
  102800    488.90591   -146047.28            0   -144025.07   -2844.9802 
  102900    486.86116   -146038.83            0   -144025.07   -3025.0532 
  103000    489.30355   -146048.95            0   -144025.09   -2874.6669 
  103100    488.17944    -146044.3            0   -144025.09    -2899.873 
  103200    488.57341   -146045.91            0   -144025.07   -2938.2954 
  103300    489.68692   -146050.56            0   -144025.12   -3035.3423 
  103400    487.89298   -146043.09            0   -144025.07   -2924.7915 
  103500    490.11786    -146052.3            0   -144025.07   -2942.9888 
  103600    488.40758   -146045.19            0   -144025.04   -2897.4689 
  103700    488.05812   -146043.71            0   -144025.01   -3022.9817 
  103800    487.86427   -146042.92            0   -144025.02   -3023.0825 
  103900    487.22362   -146040.24            0   -144024.99   -2843.0574 
  104000    489.60482   -146050.09            0   -144024.99   -3042.4177 
  104100    488.63333   -146046.08            0      -144025   -2943.3816 
  104200    488.04459   -146043.62            0   -144024.97   -3152.0428 
  104300    489.94561   -146051.49            0   -144024.98   -2946.4552 
  104400    488.13206   -146044.01            0      -144025   -3162.7316 
  104500    488.41858   -146045.16            0   -144024.96   -2802.0227 
  104600    487.81438   -146042.68            0   -144024.99   -2964.9959 
  104700    489.97228   -146051.66            0   -144025.04    -2862.815 
  104800    485.99689   -146035.16            0   -144024.98   -2980.4446 
  104900    489.94227   -146051.46            0   -144024.96   -2915.5351 
  105000    488.76163   -146046.53            0   -144024.92   -2913.7804 
  105100    486.82843   -146038.54            0   -144024.92   -3059.2597 
  105200    490.44889   -146053.52            0   -144024.93   -2702.2953 
  105300    486.49132   -146037.16            0   -144024.93   -3075.9145 
[...]
  976400    497.16504   -146017.06            0   -143960.69    -2965.447 
  976500    496.98243   -146016.26            0   -143960.64   -2994.7192 
  976600    494.36172    -146005.4            0   -143960.62   -3071.2163 
  976700    496.98954   -146016.27            0   -143960.63   -2942.1377 
  976800    494.52342   -146006.04            0   -143960.59   -3014.3303 
  976900    494.56266   -146006.23            0   -143960.63    -3062.927 
  977000    493.37796    -146001.3            0   -143960.59   -2891.3069 
  977100    494.70695   -146006.78            0   -143960.57   -2855.2579 
  977200    494.33296   -146005.26            0    -143960.6   -3116.5971 
  977300    496.07093    -146012.4            0   -143960.56   -2691.9007 
  977400    496.56981   -146014.48            0   -143960.57   -3126.7222 
  977500    494.19677   -146004.63            0   -143960.54   -3047.5991 
  977600    499.45923   -146026.36            0    -143960.5   -2803.3079 
  977700    493.77189   -146002.79            0   -143960.45    -3018.674 
  977800    494.26592   -146004.82            0   -143960.44   -2951.8701 
  977900    495.58782   -146010.27            0   -143960.42   -3057.1891 
  978000    495.61913   -146010.42            0   -143960.44   -3091.8847 
  978100    498.55929    -146022.6            0   -143960.46   -2898.8321 
  978200    493.69357   -146002.46            0   -143960.45    -3230.015 
  978300    499.12427   -146024.96            0   -143960.48   -2832.1095 
  978400    499.21601   -146025.35            0    -143960.5   -3006.2276 
  978500    496.31769   -146013.36            0   -143960.49   -3018.2018 
  978600    498.57531   -146022.69            0   -143960.49   -2928.6832 
  978700    495.79473   -146011.22            0   -143960.52   -3081.9123 
  978800    496.34374   -146013.49            0   -143960.52   -2986.1315 
  978900     497.3804   -146017.75            0   -143960.48   -2970.5193 
  979000    496.45138   -146013.91            0   -143960.49   -2960.9287 
  979100    497.80904   -146019.52            0   -143960.48    -2864.109 
  979200    496.29462   -146013.24            0   -143960.47   -3029.4896 
  979300    500.15491   -146029.18            0   -143960.44   -2836.0972 
  979400    494.94148   -146007.61            0   -143960.43   -2979.4111 
  979500    498.88958   -146023.92            0   -143960.42   -2953.7615 
  979600    495.34251   -146009.26            0   -143960.43   -2941.5019 
  979700    494.00224    -146003.7            0   -143960.41   -2879.3799 
  979800    493.03571   -145999.66            0   -143960.37   -3007.8303 
  979900    497.10753   -146016.53            0    -143960.4   -2896.1713 
  980000    494.01488   -146003.73            0   -143960.39   -3106.6732 
  980100     498.0541   -146020.46            0   -143960.41   -2795.2329 
  980200    496.16731   -146012.67            0   -143960.43   -2992.8808 
  980300    498.75137   -146023.37            0   -143960.44   -2679.7022 
  980400    493.52328   -146001.73            0   -143960.42   -3258.9955 
  980500    496.69358   -146014.83            0   -143960.41   -2930.6653 
  980600    495.90068   -146011.56            0   -143960.41   -2772.7474 
  980700    495.20143   -146008.69            0   -143960.44   -3063.7756 
  980800    494.72098    -146006.7            0   -143960.43   -3053.0463 
  980900    496.97654   -146016.01            0   -143960.42   -3044.7229 
  981000    499.48102    -146026.4            0   -143960.45   -3053.0442 
  981100    498.70129   -146023.17            0   -143960.45   -3003.3485 
  981200    496.12316    -146012.5            0   -143960.43   -3212.6036 
  981300    498.53758   -146022.47            0   -143960.42   -2896.1563 
  981400    495.61833   -146010.41            0   -143960.43   -3109.3393 
  981500    492.92092   -145999.22            0    -143960.4   -3055.4069 
  981600    495.65351   -146010.53            0   -143960.41   -2970.3886 
  981700    493.53833    -146001.8            0   -143960.43   -3124.7649 
  981800    496.18248   -146012.72            0   -143960.41   -3009.0851 
  981900    494.87538   -146007.28            0   -143960.38   -2922.8654 
  982000    494.31603   -146004.96            0   -143960.37   -3117.8877 
  982100     495.4114   -146009.52            0    -143960.4   -3023.2488 
  982200     498.1358   -146020.78            0   -143960.39   -3047.4696 
  982300    495.01324   -146007.86            0   -143960.39   -3012.0889 
  982400    499.11449   -146024.82            0   -143960.39   -2938.5045 
  982500    495.62017   -146010.34            0   -143960.36   -3062.6242 
  982600     496.9015   -146015.64            0   -143960.36   -2936.0403 
  982700    495.50085   -146009.83            0   -143960.34   -2998.6711 
  982800    496.24746   -146012.93            0   -143960.35   -3062.9535 
  982900    495.12559   -146008.29            0   -143960.35   -3020.9331 
  983000    497.89813   -146019.75            0   -143960.35   -2997.0745 
  983100    497.25875    -146017.1            0   -143960.34   -3172.4016 
  983200    497.42211   -146017.76            0   -143960.32   -3103.5991 
  983300    495.58048   -146010.11            0   -143960.29   -2978.3985 
  983400    496.56221   -146014.18            0    -143960.3   -3047.9935 
  983500    495.66631   -146010.46            0   -143960.28   -3062.9007 
  983600    496.98422   -146015.93            0    -143960.3   -3045.3075 
  983700    499.27215   -146025.37            0   -143960.28   -2875.7907 
  983800     495.2984   -146008.93            0   -143960.28   -3183.7025 
  983900    494.45071   -146005.42            0   -143960.27   -3076.1064 
  984000    496.86817   -146015.41            0   -143960.26   -2941.1879 
  984100    496.87428   -146015.42            0   -143960.25   -3152.0472 
  984200    498.51636   -146022.22            0   -143960.25   -2981.9759 
  984300    497.63536   -146018.57            0   -143960.26   -3189.6764 
  984400    494.79776   -146006.82            0   -143960.24   -3114.6342 
  984500    497.60922   -146018.44            0   -143960.23   -3042.9264 
  984600    496.19792   -146012.62            0   -143960.25   -3200.9883 
  984700     498.4657   -146021.98            0   -143960.23   -3034.6785 
  984800    495.72824   -146010.64            0   -143960.21   -3155.5527 
  984900    495.47705   -146009.58            0   -143960.19   -3128.2043 
  985000    497.33526   -146017.28            0   -143960.21    -3071.431 
  985100    492.39799   -145996.86            0   -143960.21   -3276.2565 
  985200    496.58728   -146014.19            0   -143960.21   -2930.2776 
  985300    495.15147   -146008.26            0   -143960.21   -3133.5522 
  985400    494.82642   -146006.94            0   -143960.24   -3136.3273 
  985500    499.52346   -146026.37            0   -143960.24   -2955.8649 
  985600    492.60439   -145997.71            0   -143960.21   -3237.3728 
  985700    498.79757   -146023.35            0   -143960.23   -3031.4634 
  985800    496.32984   -146013.14            0   -143960.23   -3047.7379 
  985900    496.76429   -146014.94            0   -143960.23   -3025.2087 
  986000    495.10239   -146008.07            0   -143960.23   -2945.0237 
  986100    493.60167   -146001.86            0   -143960.22    -3287.033 
  986200    497.14335   -146016.49            0   -143960.21   -2887.0239 
  986300    494.42453   -146005.23            0   -143960.19    -3116.346 
  986400    495.63655   -146010.22            0   -143960.17   -2951.5821 
  986500    495.87303    -146011.2            0   -143960.17   -3130.6146 
  986600    494.26003   -146004.52            0   -143960.17   -3183.9896 
  986700    499.05618   -146024.38            0   -143960.19   -2973.2069 
  986800    495.53703   -146009.81            0   -143960.17   -3214.1164 
  986900    496.44549   -146013.53            0   -143960.13   -2839.0969 
  987000    493.78506    -146002.5            0   -143960.11   -3083.6528 
  987100    494.91843   -146007.18            0    -143960.1   -2901.8887 
  987200    497.51481   -146017.96            0   -143960.14   -3044.0297 
  987300    495.39182   -146009.13            0   -143960.09   -3164.8067 
  987400    500.62578   -146030.78            0   -143960.09   -2899.5843 
  987500    495.05009   -146007.68            0   -143960.06    -3281.208 
  987600    497.64984   -146018.41            0   -143960.03   -2884.5771 
  987700    496.79011   -146014.83            0      -143960   -2942.2422 
  987800    494.90969   -146007.05            0      -143960   -3053.8618 
  987900    495.27993   -146008.55            0   -143959.98   -3043.1146 
  988000    497.63997   -146018.32            0   -143959.98   -2973.4967 
  988100    495.75356   -146010.51            0   -143959.98   -3076.1569 
  988200    495.70483   -146010.31            0   -143959.98   -3144.6432 
  988300     499.6084   -146026.48            0      -143960   -3073.8165 
  988400    494.36453   -146004.77            0   -143959.98   -3091.7358 
  988500    497.15531   -146016.32            0   -143959.99   -2998.9121 
  988600    498.08626   -146020.16            0   -143959.97   -3002.3982 
  988700    493.75295   -146002.24            0   -143959.98   -3321.3181 
  988800      496.668   -146014.27            0   -143959.96   -2926.5698 
  988900    496.65728    -146014.2            0   -143959.93   -3069.5143 
  989000    495.79342   -146010.63            0   -143959.93    -3086.365 
  989100    497.98612    -146019.7            0   -143959.93   -3123.6791 
  989200    495.87077   -146010.91            0   -143959.89   -3044.6824 
  989300    496.08192   -146011.77            0   -143959.87   -3129.1617 
  989400    496.44122   -146013.17            0    -143959.8   -3026.0962 
  989500    495.13998   -146007.79            0    -143959.8   -3055.5648 
  989600    494.50565   -146005.16            0   -143959.79   -3156.8075 
  989700    498.41541   -146021.34            0    -143959.8   -2938.0727 
  989800    495.09632    -146007.6            0   -143959.79   -3131.0835 
  989900    495.47697   -146009.14            0   -143959.75   -3125.9922 
  990000    497.38839   -146017.04            0   -143959.75   -3178.1952 
  990100    497.49867   -146017.45            0    -143959.7    -3010.659 
  990200      497.162   -146016.07            0   -143959.71   -3011.2598 
  990300    497.85394   -146018.95            0   -143959.73   -3152.0272 
  990400    498.59523   -146022.06            0   -143959.78   -2936.7745 
  990500    498.81764   -146023.01            0    -143959.8   -3176.5866 
  990600    497.64382   -146018.13            0   -143959.78   -3114.5171 
  990700    495.63167   -146009.76            0   -143959.73   -3204.3315 
  990800    497.92645   -146019.18            0   -143959.66   -3076.5197 
  990900    496.59722   -146013.62            0    -143959.6   -3009.3772 
  991000    494.66974   -146005.64            0   -143959.59   -3337.7097 
  991100    500.48073   -146029.75            0   -143959.67   -3033.2663 
  991200     495.9975   -146011.18            0   -143959.63   -3192.1641 
  991300    494.54602   -146005.13            0   -143959.59   -3081.6548 
  991400    495.39226   -146008.58            0   -143959.54   -3161.3212 
  991500    497.10241   -146015.57            0   -143959.46   -2968.9245 
  991600    495.23434   -146007.81            0   -143959.43   -3197.2261 
  991700    494.43833   -146004.42            0   -143959.32   -3127.9636 
  991800    495.40425   -146008.39            0    -143959.3   -3070.2615 
  991900    493.78219   -146001.67            0   -143959.29   -3301.0165 
  992000    496.48609   -146012.86            0    -143959.3   -2972.2421 
  992100    497.71748   -146017.96            0    -143959.3   -3282.1163 
  992200    497.83993   -146018.45            0   -143959.29    -3011.445 
  992300    495.32793   -146008.05            0   -143959.28   -3195.8235 
  992400    495.50082   -146008.78            0   -143959.29   -3128.1076 
  992500    498.26355   -146020.22            0   -143959.31   -3026.0326 
  992600    494.61897   -146005.14            0    -143959.3   -3338.6796 
  992700    497.88056   -146018.63            0    -143959.3   -3024.1906 
  992800    496.78027   -146014.06            0   -143959.28   -3198.1964 
  992900    497.51671   -146017.09            0   -143959.26   -2997.6516 
  993000    496.21335    -146011.7            0   -143959.27   -3197.6795 
  993100    494.62848   -146005.07            0   -143959.19   -3042.7861 
  993200    497.75725   -146017.96            0   -143959.14   -2937.6771 
  993300    494.04175   -146002.59            0   -143959.14   -3192.0747 
  993400    497.44931   -146016.68            0   -143959.14   -3195.6845 
  993500    500.13579   -146027.75            0    -143959.1   -2994.8955 
  993600    495.65559   -146009.18            0   -143959.06   -3240.8781 
  993700    496.16483   -146011.26            0   -143959.02   -3168.2421 
  993800    496.96498   -146014.59            0   -143959.05   -3234.8656 
  993900    497.50936   -146016.82            0   -143959.02   -3098.9413 
  994000     492.5451   -145996.29            0   -143959.03   -3084.2847 
  994100    494.74386   -146005.35            0   -143958.99   -3264.9102 
  994200     497.6919   -146017.56            0   -143959.01   -3009.1948 
  994300    495.72304   -146009.44            0   -143959.03    -3199.576 
  994400    500.47329   -146029.08            0   -143959.02   -3248.8758 
  994500    494.93759   -146006.12            0   -143958.96   -3166.3193 
  994600    500.31546   -146028.38            0   -143958.97   -3006.2306 
  994700    494.90507   -146005.97            0   -143958.94   -3222.6711 
  994800    496.74734   -146013.61            0   -143958.96   -3184.7563 
  994900    496.34932   -146011.95            0   -143958.95    -3116.066 
  995000    498.34063   -146020.21            0   -143958.97   -3099.3389 
  995100    497.38614   -146016.22            0   -143958.93   -3176.4673 
  995200    496.67328   -146013.25            0   -143958.91   -3180.5691 
  995300    497.95317   -146018.49            0   -143958.86    -2986.208 
  995400     497.2996   -146015.88            0   -143958.95   -3170.2902 
  995500    494.94947    -146006.1            0    -143958.9   -3196.7128 
  995600    495.99283   -146010.44            0   -143958.92   -3148.5047 
  995700    496.62161      -146013            0   -143958.87   -3081.7483 
  995800    496.76049   -146013.55            0   -143958.85    -3039.509 
  995900    494.41463   -146003.83            0   -143958.84   -3190.3176 
  996000    496.51195   -146012.53            0   -143958.86   -3126.4292 
  996100    495.67897   -146009.13            0   -143958.91   -3061.6642 
  996200    497.24949   -146015.63            0   -143958.91   -3040.2026 
  996300    494.75213    -146005.3            0   -143958.91   -3140.1532 
  996400    495.80466   -146009.67            0   -143958.92   -3165.9703 
  996500    496.75593   -146013.62            0   -143958.94   -3099.0432 
  996600    494.73158   -146005.25            0   -143958.95   -3288.3564 
  996700    497.80493   -146017.94            0   -143958.92    -3001.101 
  996800    497.30465   -146015.86            0   -143958.91   -3295.0598 
  996900    497.98787   -146018.69            0   -143958.92   -3079.9394 
  997000     495.5875   -146008.74            0   -143958.89   -3368.9354 
  997100    496.88011    -146014.1            0    -143958.9    -2998.897 
  997200    494.58967   -146004.61            0   -143958.89   -3132.9308 
  997300    495.02632   -146006.39            0   -143958.87   -3248.5876 
  997400    496.16507   -146011.11            0   -143958.88   -2980.2176 
  997500    497.15821   -146015.25            0   -143958.91   -3045.0893 
  997600    499.04292   -146023.02            0   -143958.88   -3033.4437 
  997700    495.98902   -146010.36            0   -143958.85   -3156.6615 
  997800    497.21022   -146015.42            0   -143958.87   -3000.9791 
  997900    494.24049   -146003.15            0   -143958.87   -3171.3252 
  998000     493.9552   -146001.97            0   -143958.87   -2880.2518 
  998100    494.13999   -146002.68            0   -143958.83   -3152.4647 
  998200    496.67544   -146013.16            0   -143958.82   -3020.2526 
  998300    495.15174   -146006.84            0    -143958.8   -3099.4395 
  998400    494.43265   -146003.82            0   -143958.75   -3013.1749 
  998500    495.42403   -146007.89            0   -143958.72   -2893.3344 
  998600    495.32779   -146007.48            0   -143958.71   -3141.7718 
  998700    495.12715    -146006.6            0   -143958.66   -3078.0098 
  998800    496.03909   -146010.33            0   -143958.62   -3102.2673 
  998900    501.05882    -146031.1            0   -143958.63   -2945.0818 
  999000    493.88695   -146001.39            0   -143958.58   -3314.4532 
  999100    498.77079   -146021.58            0   -143958.57   -2897.0472 
  999200    496.66803   -146012.88            0   -143958.56   -2960.0596 
  999300    494.30577   -146003.07            0   -143958.53   -2971.3507 
  999400     499.4687   -146024.43            0   -143958.53   -2810.7062 
  999500    494.67318   -146004.59            0   -143958.53   -3083.0296 
  999600    495.20054   -146006.82            0   -143958.58   -3004.7979 
  999700    495.68631   -146008.82            0   -143958.56   -2956.3582 
  999800    495.83865   -146009.43            0   -143958.54   -3193.5557 
  999900    502.33416   -146036.31            0   -143958.56     -2725.29 
 1000000    492.86868   -145997.13            0   -143958.53   -3238.0358 
Loop time of 6522.17 on 16 procs for 1000000 steps with 32000 atoms

Performance: 13.247 ns/day, 1.812 hours/ns, 153.323 timesteps/s
100.0% CPU use with 16 MPI tasks x 1 OpenMP threads

MPI task timing breakdown:
Section |  min time  |  avg time  |  max time  |%varavg| %total
---------------------------------------------------------------
Pair    | 2858.2     | 2938.5     | 3010       | 105.6 | 45.05
Neigh   | 125.73     | 143.58     | 154.13     |  75.5 |  2.20
Comm    | 2818       | 2907.2     | 3002.3     | 121.2 | 44.57
Output  | 4.4747     | 5.7515     | 7.38       |  47.6 |  0.09
Modify  | 15.575     | 16.459     | 19.862     |  40.2 |  0.25
Other   |            | 510.7      |            |       |  7.83

Nlocal:    2000 ave 2010 max 1990 min
Histogram: 1 1 3 0 3 3 0 2 0 3
Nghost:    1939.5 ave 1959 max 1923 min
Histogram: 2 0 3 0 4 3 3 0 0 1
Neighs:    0 ave 0 max 0 min
Histogram: 16 0 0 0 0 0 0 0 0 0
FullNghs:  0 ave 0 max 0 min
Histogram: 16 0 0 0 0 0 0 0 0 0

Total # of neighbors = 0
Ave neighs/atom = 0
Neighbor list builds = 31474
Dangerous builds = 0

------------------------------------------------
               Offload Timing Data
------------------------------------------------
  Data Pack/Cast Seconds    42.301873
  Host Neighbor Seconds     3.143566
  Host Pair Seconds         0.000000
  Offload Neighbor Seconds  56.794217
  Offload Pair Seconds      1385.348963
  Offload Wait Seconds      2443.334434
  Offload Latency Seconds   589.012462
  Offload Neighbor Balance  1.000000
  Offload Pair Balance      1.000000
  Offload Ghost Atoms       Yes
------------------------------------------------
Total wall time: 1:48:46

Used hosts:
linuxbmc1348 16.0   (current load is: 0.03)
linuxbmc1349 0   (current load is: 0.24)

Command: /opt/intel/impi/5.0.3.048/bin64/mpiexec.hydra -machinefile /tmp/mh464322/cluster-phi_148378/hostfile-63876 -host cluster-phi -np 16 /rwthfs/rz/cluster/home/mh464322/tersoff-sc16/machines/rwth-sb_phi/lammps-10Mar16/src/lmp_intel_phi_default_vector -in in.tersoff-acc -pk intel 1 mode single -sf intel -v p vanilla


Removing hostfile: /tmp/mh464322/cluster-phi_148378/hostfile-63876
