LAMMPS (10 Mar 2016)
  using 1 OpenMP thread(s) per MPI task
Intel Package: Affinitizing MPI Tasks to 2 Cores Each
Intel Package: Affinitizing MPI Tasks to 2 Cores Each
Lattice spacing in x,y,z = 5.431 5.431 5.431
Created orthogonal box = (0 0 0) to (108.62 108.62 54.31)
  2 by 4 by 2 MPI processor grid
Created 32000 atoms
----------------------------------------------------------
Using Intel Coprocessor with 4 threads per core, 14 threads per task
Precision: double
----------------------------------------------------------
Neighbor list info ...
  1 neighbor list requests
  update every 1 steps, delay 5 steps, check yes
  max neighbors/atom: 2000, page size: 100000
  master list distance cutoff = 4.2
  ghost atom cutoff = 4.2
  binsize = 2.1, bins = 52 52 26
Setting up Verlet run ...
  Unit style  : metal
  Current step: 0
  Time step   : 0.001
Memory usage per processor = 13.3875 Mbytes
Step Temp E_pair E_mol TotEng Press 
       0         1000   -148173.19            0   -144036.99    7019.4434 
     100    430.59831   -145815.58            0   -144034.54   -14551.519 
     200    543.50213   -146282.38            0   -144034.35   -2110.6986 
     300    494.98785    -146081.4            0   -144034.03   -3957.7275 
     400    497.22726   -146090.66            0   -144034.03   -3083.3979 
     500     477.9592   -146010.89            0   -144033.96   -3178.1125 
     600    468.75403   -145972.88            0   -144034.03   -4941.7509 
     700    497.72832    -146092.7            0      -144034   -2377.8166 
     800    489.30477   -146057.87            0   -144034.01   -3815.6176 
     900    489.15958   -146057.23            0   -144033.97   -3246.4603 
    1000    483.20941   -146032.57            0   -144033.93    -3975.261 
    1100    489.04855   -146056.73            0   -144033.93   -3234.1982 
    1200    487.16776   -146048.96            0   -144033.94   -3356.7723 
    1300    490.17273   -146061.39            0   -144033.94   -3635.4877 
    1400    487.18863   -146049.04            0   -144033.93   -3698.9173 
    1500    489.82053   -146059.91            0   -144033.92   -3453.1795 
    1600    488.10665    -146052.8            0    -144033.9   -3335.4688 
    1700    487.00672   -146048.29            0   -144033.94   -3557.9479 
    1800     488.0425   -146052.51            0   -144033.87   -3300.4919 
    1900    485.96143   -146043.92            0   -144033.89   -3401.4794 
    2000    486.82831    -146047.5            0   -144033.88   -3542.8457 
    2100    489.31437   -146057.76            0   -144033.86    -3083.114 
    2200    484.31959   -146037.13            0   -144033.89   -3570.8328 
    2300    488.75059   -146055.46            0   -144033.89   -3079.7795 
    2400    485.25274   -146041.11            0   -144034.01   -3475.1204 
    2500    488.69942   -146055.31            0   -144033.96   -3279.8981 
    2600    490.02656   -146060.86            0   -144034.01   -3117.4584 
    2700    482.50134   -146029.69            0   -144033.97   -3617.0637 
    2800    488.81408   -146055.82            0   -144033.99   -3125.7338 
    2900     486.2345   -146045.11            0   -144033.94   -3406.2536 
    3000     491.2448   -146065.88            0      -144034    -3592.041 
    3100    489.56486   -146058.89            0   -144033.95   -3302.3992 
    3200     486.6447   -146046.77            0   -144033.91   -3330.0896 
    3300    489.06793   -146056.83            0   -144033.95   -3260.7895 
    3400    485.06091   -146040.21            0    -144033.9   -3536.5136 
    3500    489.22215   -146057.42            0    -144033.9   -3038.0074 
    3600    487.36929   -146049.78            0   -144033.93   -3460.4258 
    3700     487.9791   -146052.28            0    -144033.9   -3405.6035 
    3800    488.62403   -146054.92            0   -144033.88   -2994.0267 
    3900    485.85741   -146043.38            0   -144033.78    -3547.742 
    4000    488.58095   -146054.64            0   -144033.77   -3155.6291 
    4100    487.86818   -146051.65            0   -144033.73    -3300.922 
    4200    484.27545   -146036.71            0   -144033.65   -3538.5154 
    4300    490.84552   -146063.87            0   -144033.63   -3133.7929 
    4400    488.11846   -146052.61            0   -144033.66   -3423.4008 
    4500    490.82445   -146063.74            0   -144033.59   -3057.5772 
    4600    483.02055   -146031.42            0   -144033.55   -3418.3332 
    4700    489.23398   -146057.12            0   -144033.55   -3047.4128 
    4800    485.96471   -146043.56            0   -144033.51   -3412.9961 
    4900    489.33118   -146057.43            0   -144033.46   -3201.7748 
    5000    489.57622   -146058.38            0    -144033.4   -2989.5617 
    5100    486.09494   -146043.96            0   -144033.37   -3368.7322 
    5200    492.13398   -146068.89            0   -144033.33   -2870.1358 
    5300    483.87709   -146034.73            0   -144033.32   -3596.5338 
    5400    491.45025      -146066            0   -144033.26   -3002.4695 
    5500    487.18832   -146048.34            0   -144033.24   -3294.6333 
    5600    486.36857   -146044.94            0   -144033.22   -3176.5195 
    5700    488.55487   -146053.99            0   -144033.23    -3114.427 
    5800    488.67064   -146054.44            0    -144033.2   -3267.5533 
    5900    488.89439   -146055.34            0   -144033.18   -3222.8845 
    6000    488.53309   -146053.83            0   -144033.17   -3029.4061 
    6100    484.73783   -146038.13            0   -144033.16     -3190.19 
    6200    485.62961   -146041.81            0   -144033.15   -3276.0638 
    6300    487.94428    -146051.4            0   -144033.17   -2907.4881 
    6400    486.18511   -146044.18            0   -144033.22     -3114.52 
    6500    486.86668   -146046.99            0   -144033.22   -2959.9138 
    6600    483.91389   -146034.71            0   -144033.15   -3122.0993 
    6700    486.93983   -146047.27            0   -144033.19   -3129.8874 
    6800    489.20642   -146056.65            0   -144033.19   -2901.9894 
    6900    485.38864   -146040.77            0   -144033.11    -3056.958 
    7000    488.13054   -146052.09            0   -144033.08   -2923.2634 
    7100    486.54176   -146045.51            0   -144033.08   -3067.7809 
    7200    489.45799   -146057.58            0   -144033.08   -2943.0246 
    7300     485.4918    -146041.2            0   -144033.11   -3304.7266 
    7400    488.53477   -146053.79            0   -144033.11   -3034.1858 
    7500    485.97443   -146043.19            0    -144033.1   -3188.9648 
    7600    487.73881   -146050.42            0   -144033.03   -2920.4937 
    7700    486.39076   -146044.81            0      -144033   -3054.4634 
    7800    485.93176    -146042.9            0   -144032.99   -3057.8627 
    7900    486.80385   -146046.48            0   -144032.97   -3048.5035 
    8000    486.47996    -146045.1            0   -144032.92   -3017.2673 
    8100    488.00388   -146051.42            0   -144032.95   -2880.8869 
    8200    484.34406   -146036.26            0   -144032.92   -3302.6863 
    8300      485.695   -146041.92            0   -144032.99   -3070.4623 
    8400    485.23687   -146039.95            0   -144032.92   -2928.6594 
    8500    487.70983   -146050.16            0    -144032.9   -2989.7328 
    8600    487.25577    -146048.2            0   -144032.82   -3150.6929 
    8700    485.44695   -146040.72            0   -144032.81   -3250.6193 
    8800    487.51098    -146049.3            0   -144032.86   -2983.1839 
    8900    487.71225   -146050.13            0   -144032.86   -3360.4621 
    9000    490.81369   -146062.98            0   -144032.88   -2871.3856 
    9100    485.83913   -146042.39            0   -144032.87   -3282.7657 
    9200    490.56836   -146061.94            0   -144032.85   -2932.4962 
    9300     485.4512   -146040.72            0   -144032.79   -3291.8924 
    9400    489.49407   -146057.49            0   -144032.85   -2998.5054 
    9500    486.83003   -146046.47            0   -144032.85   -3236.4934 
    9600    486.01269   -146043.04            0    -144032.8   -3078.1096 
    9700    487.36318   -146048.62            0   -144032.79   -3084.1456 
    9800    488.34819   -146052.75            0   -144032.84   -3070.5508 
    9900    487.28453   -146048.36            0   -144032.86   -3113.5209 
   10000    485.80789   -146042.23            0   -144032.83   -3165.6699 
   10100    488.20911   -146052.11            0   -144032.79   -2955.9779 
   10200    486.47014   -146044.99            0   -144032.85   -3221.5485 
   10300    489.69918    -146058.3            0    -144032.8    -2978.922 
   10400    488.34218   -146052.65            0   -144032.77   -3151.9269 
   10500    486.69172   -146045.79            0   -144032.73   -3103.3258 
   10600      487.726   -146050.05            0   -144032.72   -3017.0377 
   10700    488.47105   -146053.12            0   -144032.71   -3051.1638 
   10800    487.12742   -146047.53            0   -144032.68   -3071.3658 
   10900    488.15404   -146051.78            0   -144032.68   -3164.3798 
   11000       488.57   -146053.46            0   -144032.64   -3077.2438 
   11100     486.5635   -146045.12            0    -144032.6   -3099.8932 
   11200    487.15141    -146047.5            0   -144032.55    -3151.489 
   11300    488.61536   -146053.53            0   -144032.52   -2942.4152 
   11400    486.72856   -146045.71            0   -144032.51   -3130.9319 
   11500    488.28398   -146052.17            0   -144032.53   -2948.9048 
   11600    485.09399   -146038.97            0   -144032.52   -3185.0455 
   11700    488.94712   -146054.84            0   -144032.46   -3116.0631 
   11800    490.21758   -146060.05            0   -144032.41   -3087.5381 
   11900    486.61761   -146045.06            0   -144032.32   -2996.0066 
   12000    485.82914   -146041.72            0   -144032.23   -3104.8587 
   12100     487.5199   -146048.73            0   -144032.25   -2972.8173 
   12200    487.15924   -146047.16            0   -144032.17   -3059.5948 
   12300     489.4091   -146056.49            0    -144032.2   -3235.1979 
   12400    488.53981   -146052.85            0   -144032.15   -3144.9772 
   12500    489.75704   -146057.88            0   -144032.15   -2926.4119 
   12600     489.4758    -146056.7            0   -144032.13   -3180.7778 
   12700    488.63489   -146053.17            0   -144032.09    -3000.065 
   12800    485.84602   -146041.59            0   -144032.03   -2971.2001 
   12900    486.27479    -146043.4            0   -144032.08   -3089.0078 
   13000    485.68643   -146040.91            0   -144032.02   -3076.2527 
   13100     486.4841   -146044.26            0   -144032.06   -3143.0588 
   13200    487.48052   -146048.36            0   -144032.05   -3010.0254 
   13300    487.00248   -146046.37            0   -144032.03   -3230.5408 
   13400    490.71407   -146061.73            0   -144032.04   -3106.5393 
   13500    486.86314   -146045.74            0   -144031.98     -3041.68 
   13600    488.58794   -146052.82            0   -144031.92   -2978.3353 
   13700    484.26415   -146034.93            0   -144031.92   -3162.7594 
   13800    489.98583   -146058.62            0   -144031.95   -2891.4123 
   13900    485.04361   -146038.19            0   -144031.95   -3136.7612 
   14000    486.35829   -146043.62            0   -144031.95   -2984.1722 
   14100    487.53892    -146048.5            0   -144031.94   -2857.0917 
   14200    485.94494   -146041.89            0   -144031.93   -2996.5739 
   14300    486.82315   -146045.51            0   -144031.91   -3041.9205 
   14400    483.42034   -146031.41            0   -144031.89   -2988.0984 
   14500    488.57516   -146052.79            0   -144031.95   -3102.0431 
   14600    487.03501   -146046.37            0    -144031.9   -2810.6704 
   14700    486.67709   -146044.89            0    -144031.9   -3036.8022 
   14800    485.29338   -146039.06            0   -144031.79   -2970.3683 
   14900    490.12887   -146059.05            0   -144031.79   -2865.8169 
   15000    484.22021   -146034.45            0   -144031.62   -3328.1165 
   15100    488.25266   -146051.14            0   -144031.63   -2994.5145 
   15200    488.99447   -146054.18            0    -144031.6   -3007.7221 
   15300    489.40439   -146055.87            0    -144031.6   -3018.0712 
   15400    488.43302   -146051.85            0   -144031.59   -3195.7521 
   15500    490.13066   -146058.85            0   -144031.58   -3081.7467 
   15600    489.41645   -146055.78            0   -144031.46   -2980.5407 
   15700    486.15134   -146042.26            0   -144031.45   -3160.4593 
   15800    486.44074   -146043.46            0   -144031.44    -2936.629 
   15900    486.76878   -146044.86            0   -144031.49   -3153.3213 
   16000    489.43047   -146055.85            0   -144031.47   -3099.9042 
   16100    487.18032   -146046.51            0   -144031.44   -3105.8173 
   16200    488.82186   -146053.38            0   -144031.52    -3051.187 
   16300    488.15322   -146050.58            0   -144031.49   -3101.0166 
   16400    485.46474   -146039.39            0   -144031.41   -3010.7505 
   16500    483.90361   -146032.95            0   -144031.43   -3052.5406 
   16600    489.78576   -146057.23            0   -144031.38   -2769.7579 
   16700    486.00692   -146041.55            0   -144031.33   -3213.2249 
   16800    490.90633   -146061.86            0   -144031.37   -2959.4223 
   16900    487.88825   -146049.37            0   -144031.37   -3135.2501 
   17000    490.83248   -146061.55            0   -144031.37    -3138.061 
   17100    489.18399    -146054.7            0   -144031.34   -3175.7368 
   17200    489.84478   -146057.48            0   -144031.39    -3243.164 
   17300    487.62245   -146048.24            0   -144031.34   -2982.3489 
   17400    486.00289   -146041.53            0   -144031.32   -3147.0148 
   17500    488.87475   -146053.43            0   -144031.35   -3134.7623 
   17600     489.9045   -146057.69            0   -144031.35   -3067.5823 
   17700    488.24218   -146050.82            0   -144031.36   -3123.6956 
   17800    485.96769   -146041.44            0   -144031.38   -3177.6165 
   17900    487.28737   -146046.87            0   -144031.35   -3246.4074 
   18000    489.21621   -146054.86            0   -144031.37   -3002.7265 
   18100    489.80842    -146057.3            0   -144031.35   -2984.8539 
   18200    484.76303   -146036.39            0   -144031.31   -3095.7331 
   18300    487.33372   -146047.04            0   -144031.34   -2953.6835 
   18400    484.25404    -146034.3            0   -144031.33   -3254.1097 
   18500    490.59182   -146060.48            0    -144031.3   -2909.5465 
   18600    487.73953   -146048.68            0    -144031.3   -3177.9389 
   18700    485.53677    -146039.5            0   -144031.22   -2987.9389 
   18800    487.33203   -146046.91            0   -144031.21   -2955.2584 
   18900    487.48208   -146047.48            0   -144031.16   -2910.8076 
   19000     488.9628   -146053.59            0   -144031.14   -2971.0972 
   19100    487.82799   -146048.87            0   -144031.12   -2907.4008 
   19200     487.1114   -146045.86            0   -144031.07   -3081.4421 
   19300    489.06034   -146053.94            0   -144031.09   -2819.1268 
   19400    484.19868   -146033.81            0   -144031.07   -3074.7195 
   19500    487.11633   -146045.93            0   -144031.12   -2929.4965 
   19600    484.99389   -146037.13            0    -144031.1   -2966.4314 
   19700    486.77411   -146044.47            0   -144031.08   -2908.1296 
   19800    485.14422   -146037.73            0   -144031.08   -2984.4925 
   19900     485.3029   -146038.35            0   -144031.04   -3022.5414 
   20000    488.56649   -146051.83            0   -144031.02   -2910.2106 
   20100    486.95846    -146045.2            0   -144031.05   -3001.3201 
   20200    487.74226   -146048.45            0   -144031.05   -2954.6369 
   20300    487.80921   -146048.73            0   -144031.06    -2851.071 
   20400    486.78919   -146044.52            0   -144031.07   -3011.8815 
   20500      486.713   -146044.19            0   -144031.05    -2987.725 
   20600     487.6537   -146048.06            0   -144031.02   -2927.3298 
   20700    488.15698   -146050.16            0   -144031.05   -3051.6241 
   20800     487.5628   -146047.65            0      -144031   -2878.8607 
   20900    487.86231   -146048.88            0   -144030.98   -2963.4453 
   21000    487.26391   -146046.42            0      -144031   -3095.1604 
   21100    488.42728   -146051.17            0   -144030.94   -2973.6309 
   21200    489.47703   -146055.44            0   -144030.87   -2938.5596 
   21300    487.48557    -146047.2            0   -144030.87   -3022.5611 
   21400    486.36462   -146042.59            0   -144030.89   -3024.9757 
   21500    488.28172    -146050.5            0   -144030.87   -2931.4732 
   21600    487.72879   -146048.18            0   -144030.84   -3091.2259 
   21700    489.37455   -146054.91            0   -144030.76    -2900.178 
   21800    485.16477   -146037.47            0   -144030.73    -3051.613 
   21900     486.8963   -146044.66            0   -144030.76   -3074.3007 
   22000    489.80786   -146056.75            0   -144030.81   -2933.1983 
   22100    484.88942   -146036.41            0   -144030.81   -2967.0913 
   22200    485.70935   -146039.65            0   -144030.66   -3095.7773 
   22300    485.30793   -146037.93            0    -144030.6   -3093.2445 
   22400    489.45058   -146055.06            0    -144030.6   -2912.8811 
   22500    485.90058   -146040.35            0   -144030.57   -3222.8982 
   22600    489.17118   -146053.88            0   -144030.57   -2840.8649 
   22700    484.72232   -146035.47            0   -144030.56   -3170.4114 
   22800    488.86366   -146052.57            0   -144030.53   -2873.9884 
   22900    487.29859   -146046.06            0    -144030.5   -3187.8426 
   23000    490.37463   -146058.83            0   -144030.54   -3062.2164 
   23100    488.32145   -146050.35            0   -144030.55   -3163.2622 
   23200    490.14245   -146057.88            0   -144030.55   -3051.3047 
   23300    488.15948   -146049.61            0   -144030.49    -2918.758 
   23400    485.28276   -146037.66            0   -144030.44   -3240.7425 
   23500     488.5276   -146051.13            0   -144030.48   -2983.8707 
   23600      489.378   -146054.68            0   -144030.51   -3278.9606 
   23700    491.50376   -146063.43            0   -144030.48   -2983.1721 
   23800    490.04713   -146057.41            0   -144030.48   -3151.9315 
   23900    489.98339   -146057.09            0   -144030.42   -3036.3452 
   24000    487.33726   -146046.11            0   -144030.39   -2945.0717 
   24100    486.20175   -146041.44            0   -144030.41   -3217.3264 
   24200    488.25325   -146049.93            0   -144030.42   -3085.3444 
   24300     489.2811   -146054.18            0   -144030.42   -2979.4806 
   24400    488.48937   -146050.92            0   -144030.43   -2953.7778 
   24500    487.81194    -146048.1            0   -144030.41   -3093.9247 
   24600    490.04104   -146057.31            0   -144030.41   -3110.4518 
   24700     492.0208    -146065.5            0   -144030.41   -2925.3604 
   24800    486.05648   -146040.81            0   -144030.38   -3057.8642 
   24900    486.90494   -146044.27            0   -144030.33   -2977.3598 
   25000    487.30851   -146045.93            0   -144030.32   -2880.4706 
   25100    486.06888   -146040.82            0   -144030.34   -3100.7884 
   25200    488.23688   -146049.82            0   -144030.37   -3057.6146 
   25300    486.31703   -146041.82            0   -144030.31   -3019.8753 
   25400    487.99107   -146048.72            0   -144030.29   -3059.3104 
   25500    488.91634   -146052.47            0   -144030.22   -2908.6598 
   25600    486.65999   -146043.14            0   -144030.22   -3071.8529 
   25700    489.25972   -146053.88            0   -144030.21   -2997.2927 
   25800    488.82373   -146052.07            0    -144030.2   -3077.0662 
   25900    489.15336   -146053.37            0   -144030.14   -3082.6806 
   26000     489.2109   -146053.63            0   -144030.16   -3100.7378 
   26100    488.20453   -146049.45            0   -144030.14   -3128.9526 
   26200    489.93673   -146056.62            0   -144030.15   -2959.0504 
   26300    487.49511   -146046.55            0   -144030.17   -3237.4838 
   26400    489.60914   -146055.28            0   -144030.16   -3128.2455 
   26500    486.62563   -146042.91            0   -144030.13   -3197.6395 
   26600    488.36272   -146050.09            0   -144030.12   -2835.5074 
   26700    485.84735   -146039.76            0    -144030.2   -3156.8247 
   26800     488.2815   -146049.78            0   -144030.15   -3114.9283 
   26900    486.62831   -146042.88            0   -144030.09   -3077.7641 
   27000    488.40056   -146050.22            0    -144030.1   -3094.8834 
   27100    487.47387   -146046.34            0   -144030.06   -3148.4903 
   27200     485.9095    -146039.9            0   -144030.08   -3112.7907 
   27300    490.23651    -146057.8            0   -144030.09   -3024.2648 
   27400      486.916   -146044.02            0   -144030.04   -3075.7203 
   27500    487.70682   -146047.28            0   -144030.03   -3052.1068 
   27600    488.55476   -146050.75            0   -144029.99   -3111.5991 
   27700    490.17445   -146057.41            0   -144029.96   -3060.0673 
   27800    489.43914   -146054.39            0   -144029.97   -3076.4657 
   27900    486.38794   -146041.73            0   -144029.94   -3060.5294 
   28000    486.35415   -146041.61            0   -144029.96   -3111.2604 
   28100    489.70661   -146055.47            0   -144029.95   -2943.0692 
   28200    487.01113   -146044.32            0   -144029.94    -3031.918 
   28300    486.63573   -146042.68            0   -144029.86   -3028.7883 
   28400    485.78198   -146039.12            0   -144029.83   -3067.3161 
   28500    489.31909    -146053.7            0   -144029.78   -3114.9144 
   28600    486.81266   -146043.31            0   -144029.75   -2970.5631 
   28700    485.86628   -146039.39            0   -144029.75   -3133.8478 
   28800     489.7882   -146055.63            0   -144029.77   -3000.0684 
   28900    490.32647   -146057.87            0   -144029.79   -3096.3452 
   29000    491.21917   -146061.57            0   -144029.79   -2861.3969 
   29100    486.63912   -146042.57            0   -144029.74   -3146.2965 
   29200    490.26193   -146057.59            0   -144029.77   -2872.2962 
   29300    486.37977   -146041.53            0   -144029.77   -3131.2488 
   29400    488.04473   -146048.35            0    -144029.7    -2849.879 
   29500    489.36669   -146053.79            0   -144029.67   -3021.3524 
   29600    487.18877   -146044.73            0   -144029.63   -3177.8577 
   29700    490.96955   -146060.34            0   -144029.59   -2921.3718 
   29800     486.8911   -146043.45            0   -144029.57   -3229.8832 
   29900    487.30692   -146045.15            0   -144029.55   -2910.6375 
   30000     486.8128   -146043.03            0   -144029.48   -3025.3767 
   30100    487.40927   -146045.53            0   -144029.51   -2915.8021 
   30200    489.02449   -146052.19            0   -144029.49   -3086.4905 
   30300    487.07817   -146044.07            0   -144029.42   -3015.2514 
   30400     488.8964   -146051.59            0   -144029.42   -3024.7417 
   30500    486.79581   -146042.89            0   -144029.41   -3036.8781 
   30600    488.27063   -146049.01            0   -144029.43   -3199.0231 
   30700    489.09001   -146052.39            0   -144029.42   -2928.1348 
   30800    485.75783   -146038.59            0    -144029.4   -3147.0554 
   30900     487.8686   -146047.33            0   -144029.41   -2868.2853 
   31000    485.37695      -146037            0   -144029.39   -3162.6571 
   31100     488.2909   -146049.01            0   -144029.35   -3002.6513 
   31200    490.29232   -146057.28            0   -144029.34    -2989.738 
   31300     488.0021    -146047.8            0   -144029.33   -3239.7167 
   31400    488.15313    -146048.4            0   -144029.31   -3084.8913 
   31500     489.2159   -146052.74            0   -144029.25   -3167.6023 
   31600    487.15616   -146044.17            0   -144029.19   -3049.4562 
   31700    488.56909   -146049.98            0   -144029.16   -3009.6408 
   31800    488.40388   -146049.31            0   -144029.18   -2974.1251 
   31900    484.54926   -146033.33            0   -144029.14   -3109.2957 
   32000    487.69078   -146046.32            0   -144029.13   -3014.5984 
   32100    486.99867   -146043.49            0   -144029.17   -3093.4657 
   32200    486.27606   -146040.46            0   -144029.12    -3016.617 
   32300    488.63444   -146050.24            0   -144029.15   -3085.6199 
   32400    488.83138   -146051.05            0   -144029.15   -3270.1876 
   32500    489.22876   -146052.67            0   -144029.13   -3091.6243 
   32600    486.29426   -146040.58            0   -144029.17   -3176.7093 
   32700     487.3276   -146044.84            0   -144029.16   -3034.8651 
   32800    488.49113   -146049.62            0   -144029.12   -3027.8847 
   32900    487.65075   -146046.13            0   -144029.11    -3089.618 
   33000    489.87087   -146055.31            0    -144029.1   -2998.7152 
   33100    484.21308    -146031.9            0    -144029.1   -3391.3419 
   33200    487.85556   -146046.93            0   -144029.06   -2971.6726 
   33300    485.79405    -146038.4            0   -144029.06   -3202.9414 
   33400    489.39177   -146053.31            0   -144029.09   -2973.9493 
   33500    488.20472   -146048.36            0   -144029.05   -3201.1306 
   33600    488.02083   -146047.62            0   -144029.07   -2976.2825 
   33700     484.1112   -146031.39            0   -144029.01   -3152.7692 
   33800    489.67376   -146054.39            0      -144029   -2870.9914 
   33900    486.02385   -146039.26            0   -144028.97   -3112.9148 
   34000    488.73665    -146050.5            0   -144028.99    -2996.833 
   34100    485.96394   -146039.04            0   -144028.99   -3179.6067 
   34200    489.37089    -146053.1            0   -144028.97   -3071.4195 
   34300      489.064   -146051.78            0   -144028.92   -3141.6052 
   34400    489.44791   -146053.34            0   -144028.89   -3068.6134 
   34500    490.35457   -146057.09            0   -144028.88   -3003.5446 
   34600    490.84812   -146059.09            0   -144028.85   -3023.3345 
   34700    485.69973   -146037.72            0   -144028.77    -3115.397 
   34800    488.75662   -146050.31            0   -144028.72   -3099.7402 
   34900    491.14208   -146060.22            0   -144028.76   -3027.5464 
   35000    490.42206   -146057.24            0   -144028.76   -3107.9212 
   35100    487.71307      -146046            0   -144028.72   -3232.0867 
   35200    490.49755   -146057.47            0   -144028.67   -3034.4219 
   35300    489.78957   -146054.51            0   -144028.65   -3114.0231 
   35400    490.41368   -146057.03            0   -144028.58   -2993.3374 
   35500    485.22706   -146035.53            0   -144028.53   -3264.6605 
   35600    490.93834   -146059.17            0   -144028.55   -2956.5917 
   35700    487.77921   -146046.11            0   -144028.56   -3183.9718 
   35800    491.82029   -146062.85            0   -144028.59   -3115.7023 
   35900    486.26062    -146039.8            0   -144028.54   -3228.7482 
   36000      488.622   -146049.55            0   -144028.51   -3051.5135 
   36100    487.59813   -146045.33            0   -144028.53   -3099.3519 
   36200    490.22897   -146056.22            0   -144028.54   -3128.7706 
   36300    488.12251   -146047.49            0   -144028.52   -3104.8088 
   36400    488.97515   -146050.99            0    -144028.5   -3037.0087 
   36500    486.35251   -146040.11            0   -144028.46   -3224.9865 
   36600    489.26971   -146052.16            0   -144028.44   -2871.1569 
   36700    487.05991   -146043.01            0   -144028.43   -3224.2475 
   36800     486.7994   -146041.93            0   -144028.43   -3248.5283 
   36900    492.66785   -146066.22            0   -144028.45   -2913.9757 
   37000    484.94013   -146034.23            0   -144028.42   -3295.6473 
   37100    490.11939   -146055.65            0   -144028.42   -2978.5156 
   37200    487.50451    -146044.8            0   -144028.38   -3155.8235 
   37300    487.94682   -146046.59            0   -144028.34   -3141.4938 
   37400    489.97728   -146054.92            0   -144028.28   -3019.5332 
   37500    485.97052   -146038.34            0   -144028.27   -3090.2336 
   37600    485.31293   -146035.61            0   -144028.26   -3147.9929 
   37700     485.7993   -146037.62            0   -144028.26   -3229.5184 
   37800    490.75574   -146058.12            0   -144028.26   -2961.9311 
   37900    489.67428   -146053.65            0   -144028.26   -3232.8714 
   38000    485.86978   -146037.89            0   -144028.24   -3179.5911 
   38100    489.68001   -146053.65            0   -144028.24    -3031.047 
   38200    488.26585   -146047.78            0   -144028.22   -3037.6126 
   38300    486.54765   -146040.65            0   -144028.19   -3123.7306 
   38400    486.08139   -146038.72            0    -144028.2   -3243.2253 
   38500    490.79059    -146058.2            0   -144028.19   -2997.5415 
   38600    487.28376    -146043.7            0    -144028.2   -3289.3348 
   38700    491.47038   -146061.04            0   -144028.22   -3023.3252 
   38800    488.10414   -146047.05            0   -144028.15   -3277.7965 
   38900    489.73237    -146053.8            0   -144028.17   -3070.4089 
   39000    489.14253    -146051.3            0   -144028.11   -2969.2031 
   39100     487.9372   -146046.31            0    -144028.1   -3291.2089 
   39200    490.10641   -146055.26            0   -144028.09   -3101.3064 
   39300    490.43464   -146056.66            0   -144028.12   -3190.1448 
   39400    488.11435   -146047.05            0   -144028.11   -3128.6933 
   39500    486.06585   -146038.54            0   -144028.08   -3058.7313 
   39600     488.5445   -146048.81            0   -144028.09   -3104.5799 
   39700    486.96037   -146042.24            0   -144028.07   -3034.9351 
   39800     488.8093    -146049.9            0   -144028.09   -3056.9956 
   39900    484.96418   -146034.01            0   -144028.11   -3165.4733 
   40000    486.63414   -146040.93            0   -144028.12   -2950.1721 
   40100    485.89736   -146037.87            0    -144028.1   -3087.0333 
   40200    487.31846   -146043.76            0   -144028.11   -3074.1443 
   40300    487.23102   -146043.39            0   -144028.11   -3073.3655 
   40400    487.26696   -146043.53            0   -144028.09   -3122.8258 
   40500    487.54652   -146044.64            0   -144028.05   -3083.2678 
   40600    486.71919   -146041.26            0    -144028.1   -3040.4988 
   40700     487.9828    -146046.5            0   -144028.11   -3160.6243 
   40800    489.23706   -146051.66            0   -144028.08   -2982.1577 
   40900    489.63701   -146053.33            0    -144028.1   -3119.8927 
   41000    488.93811   -146050.44            0    -144028.1   -3235.9158 
   41100    490.11479   -146055.34            0   -144028.13   -2997.7276 
   41200     488.4657   -146048.52            0   -144028.13   -3079.3802 
   41300    488.13077   -146047.17            0   -144028.16   -3084.6537 
   41400    486.98126   -146042.35            0    -144028.1   -3112.2731 
   41500    487.03247   -146042.51            0   -144028.05   -3071.1132 
   41600    490.57407   -146057.13            0   -144028.02   -3093.4497 
   41700    486.36144   -146039.62            0   -144027.93   -2926.8859 
   41800     487.1824   -146043.03            0   -144027.95   -3044.5333 
   41900    486.28394   -146039.26            0   -144027.89    -2933.866 
   42000    486.82335   -146041.49            0   -144027.89   -3029.6075 
   42100    489.60047   -146052.97            0   -144027.89   -3049.6981 
   42200    486.61492   -146040.57            0   -144027.84   -3076.5437 
   42300    490.96807   -146058.55            0   -144027.81   -2890.9333 
   42400    487.86606   -146045.67            0   -144027.76   -3122.6519 
   42500    489.54351   -146052.61            0   -144027.76   -2939.5909 
   42600    486.92712   -146041.74            0   -144027.72   -3256.0627 
   42700     488.5009   -146048.24            0    -144027.7   -2886.6882 
   42800    488.10324   -146046.61            0   -144027.72   -3011.0843 
   42900     490.4043    -146056.2            0   -144027.79    -2929.644 
   43000    488.26497   -146047.31            0   -144027.75    -3004.017 
   43100    489.79316   -146053.59            0   -144027.71   -2922.4956 
   43200    487.50519   -146044.15            0   -144027.73   -3010.3297 
   43300    485.67929   -146036.55            0   -144027.69   -3059.6273 
   43400    488.79885   -146049.48            0   -144027.71   -3057.7656 
   43500     487.3473   -146043.49            0   -144027.73     -2822.02 
   43600    487.94756   -146045.96            0   -144027.71   -3236.8719 
   43700    491.49425   -146060.63            0   -144027.71   -2834.2419 
   43800    487.88213    -146045.7            0   -144027.72   -3184.9612 
   43900    488.74987   -146049.23            0   -144027.67   -3007.8922 
   44000    487.15934   -146042.67            0   -144027.68   -3190.8352 
   44100    489.93903   -146054.13            0   -144027.64   -3010.6675 
   44200      489.141   -146050.81            0   -144027.63   -2809.6533 
   44300    484.41944   -146031.29            0   -144027.63   -3165.5673 
   44400     488.5831   -146048.54            0   -144027.66   -2882.9232 
   44500    489.00859   -146050.32            0   -144027.69   -3111.1882 
   44600    486.40997   -146039.56            0   -144027.68   -2974.9415 
   44700    487.52479   -146044.18            0   -144027.68   -2994.0886 
   44800    486.35485    -146039.3            0   -144027.64   -3073.4457 
   44900    488.11375   -146046.57            0   -144027.63   -3056.8313 
   45000    487.73059   -146044.96            0   -144027.61    -3093.657 
   45100    488.54695   -146048.32            0    -144027.6   -3011.8408 
   45200    488.88464   -146049.75            0   -144027.63   -3140.2114 
   45300    488.40093   -146047.77            0   -144027.65   -3095.2447 
   45400    485.80859   -146037.03            0   -144027.63    -3194.928 
   45500    490.66981   -146057.14            0   -144027.64   -2915.0471 
   45600    489.09348    -146050.6            0   -144027.62   -3210.3467 
   45700    488.64047   -146048.77            0   -144027.66   -3150.5937 
   45800    490.25918   -146055.48            0   -144027.67   -2884.6618 
   45900    487.01889   -146042.04            0   -144027.64   -3159.8894 
   46000    488.51546    -146048.2            0    -144027.6   -2829.2294 
   46100    486.24126   -146038.78            0   -144027.59   -3060.7335 
   46200     487.8715   -146045.51            0   -144027.58   -2948.5663 
   46300    488.38401   -146047.66            0   -144027.61   -2966.6628 
   46400     488.8815   -146049.73            0   -144027.62   -3013.4203 
   46500    487.41815   -146043.65            0    -144027.6   -3026.2203 
   46600    489.07227   -146050.54            0   -144027.65   -2931.7968 
   46700    486.98128   -146041.87            0   -144027.62    -3089.409 
   46800     487.0885   -146042.27            0   -144027.58   -2953.9363 
   46900    485.99258   -146037.73            0   -144027.57   -3140.6448 
   47000    488.37936   -146047.66            0   -144027.63   -2938.9952 
   47100    488.35676   -146047.57            0   -144027.63   -3110.1751 
   47200    488.54735   -146048.35            0   -144027.63   -2961.5643 
   47300    487.47973   -146043.94            0   -144027.63   -3169.8317 
   47400    487.73074   -146044.94            0   -144027.59   -2919.7608 
   47500    488.96105   -146050.04            0    -144027.6   -3098.8422 
   47600    487.55051   -146044.17            0   -144027.57   -3010.4082 
   47700    490.60611   -146056.84            0    -144027.6   -3134.8139 
   47800    487.45763   -146043.76            0   -144027.54   -3174.1689 
   47900    489.97029   -146054.14            0   -144027.52    -2980.384 
   48000     486.5491   -146039.96            0   -144027.49   -3072.5041 
   48100    488.56673   -146048.26            0   -144027.45   -2958.9321 
   48200    488.32028   -146047.23            0   -144027.44   -3225.7859 
   48300    488.14928   -146046.48            0    -144027.4   -2916.4007 
   48400    488.12452   -146046.36            0   -144027.38   -3134.4388 
   48500    489.42593   -146051.77            0   -144027.41   -3140.5838 
   48600    490.14153    -146054.7            0   -144027.38   -3075.8021 
   48700    489.12086   -146050.45            0   -144027.35   -2964.6068 
   48800    488.68498   -146048.67            0   -144027.38   -3147.1182 
   48900    489.91102   -146053.73            0   -144027.36   -2959.2462 
   49000    487.88022   -146045.28            0   -144027.31   -3143.5082 
   49100    486.78318   -146040.76            0   -144027.33   -3070.6238 
   49200    488.07084   -146046.07            0   -144027.31   -3022.4215 
   49300    488.14744    -146046.4            0   -144027.32   -3133.8394 
   49400     487.3806   -146043.19            0   -144027.28   -3183.1496 
   49500    489.77862   -146053.15            0   -144027.33   -3041.6502 
   49600    486.68284   -146040.35            0   -144027.34   -3084.8212 
   49700    484.56983   -146031.59            0   -144027.32   -3065.4977 
   49800    487.19333   -146042.48            0   -144027.36   -3086.9677 
   49900    489.89284   -146053.66            0   -144027.36   -3031.5116 
   50000    488.57897    -146048.2            0   -144027.35    -2997.933 
   50100     487.6768   -146044.45            0   -144027.32   -2922.2921 
   50200    488.81821   -146049.19            0   -144027.34   -2976.8246 
   50300    488.23378   -146046.76            0   -144027.33    -3065.859 
   50400    488.56521    -146048.1            0    -144027.3   -3036.7279 
   50500    489.18797    -146050.7            0   -144027.33   -2973.9579 
   50600    488.22529   -146046.71            0   -144027.31     -3165.97 
   50700    490.85102   -146057.55            0   -144027.29   -3091.8863 
   50800    488.65513   -146048.47            0   -144027.29   -3090.3816 
   50900    490.97666   -146058.06            0   -144027.29    -3166.164 
   51000    489.73988   -146052.91            0   -144027.25   -3160.5215 
   51100    491.84629   -146061.63            0   -144027.26   -3005.7397 
   51200    487.12819   -146042.04            0   -144027.18   -3070.5843 
   51300    489.43342   -146051.54            0   -144027.15   -3018.6879 
   51400    487.30608   -146042.76            0   -144027.17   -3113.3934 
   51500    487.67954   -146044.26            0   -144027.12   -3023.1069 
   51600    486.22045   -146038.21            0    -144027.1   -3118.1909 
   51700    486.23645    -146038.3            0   -144027.13   -3137.6484 
   51800    487.52967   -146043.64            0   -144027.12   -2917.8069 
   51900    489.49617   -146051.78            0   -144027.13    -3031.124 
   52000    487.09548    -146041.8            0   -144027.07   -3041.0034 
   52100     489.2565   -146050.75            0   -144027.09   -2980.0285 
   52200    488.78401   -146048.81            0    -144027.1     -3136.87 
   52300        489.3    -146050.9            0   -144027.06     -2844.78 
   52400    487.42299   -146043.13            0   -144027.05   -3179.9273 
   52500    487.93904   -146045.24            0   -144027.03   -2856.8186 
   52600    489.46374   -146051.57            0   -144027.05   -2967.9876 
   52700    484.65604   -146031.62            0   -144026.99   -2896.4901 
   52800    485.46525   -146034.95            0   -144026.97   -2903.8476 
   52900    486.93628   -146041.06            0      -144027   -3045.0225 
   53000    486.47363   -146039.16            0   -144027.01   -2904.2287 
   53100    486.96768   -146041.18            0   -144026.99   -3079.4581 
   53200    489.21008   -146050.48            0   -144027.01   -3049.4008 
   53300    488.91365   -146049.24            0      -144027   -3050.3194 
   53400    489.49086   -146051.62            0   -144026.99   -3041.5213 
   53500    487.56184    -146043.6            0   -144026.95   -2929.5005 
   53600    484.32335   -146030.22            0   -144026.97    -3004.225 
   53700    488.86698   -146049.03            0   -144026.98   -2987.5657 
   53800     487.4855   -146043.29            0   -144026.95   -3012.9797 
   53900    488.02674   -146045.56            0   -144026.98   -2939.1849 
   54000    488.42288   -146047.19            0   -144026.97   -2944.3416 
   54100     486.0861    -146037.5            0   -144026.95    -3120.251 
   54200    489.92911   -146053.42            0   -144026.98   -3030.6807 
   54300    490.04315   -146053.87            0   -144026.96   -3060.6484 
   54400     489.3974   -146051.23            0   -144026.98   -3252.8972 
   54500    488.89157   -146049.08            0   -144026.92   -3100.8316 
   54600     490.6377   -146056.33            0   -144026.95   -3042.4821 
   54700    489.59669   -146052.04            0   -144026.98   -3046.9536 
   54800    488.64559   -146048.14            0      -144027   -3230.9556 
   54900    487.76975   -146044.48            0   -144026.97   -3255.6257 
   55000    489.86006   -146053.12            0   -144026.96   -3042.3706 
   55100    486.88103   -146040.78            0   -144026.94   -2921.5995 
   55200    487.59905   -146043.75            0   -144026.94    -3109.237 
   55300    488.50512   -146047.44            0   -144026.89   -3081.0468 
   55400    491.08331    -146058.1            0   -144026.88   -3060.0206 
   55500    489.00851    -146049.5            0   -144026.87   -3086.7584 
   55600     488.3028   -146046.55            0   -144026.84   -3005.7595 
   55700    489.34849   -146050.88            0   -144026.84   -3177.1852 
   55800    488.21964   -146046.19            0   -144026.82   -3051.3098 
   55900    487.21971   -146042.06            0   -144026.83   -3058.3645 
   56000    488.71989   -146048.26            0   -144026.82   -3121.7429 
   56100     488.5994   -146047.73            0   -144026.79   -3021.8143 
   56200    487.73352   -146044.16            0    -144026.8   -3235.0698 
   56300    490.65365   -146056.25            0   -144026.81   -3067.4893 
   56400    489.84498   -146052.88            0   -144026.79   -3224.8885 
   56500    490.39215   -146055.15            0   -144026.79   -3246.5812 
   56600    488.32989   -146046.53            0   -144026.71   -3143.4053 
   56700    489.53895   -146051.52            0   -144026.69    -3206.185 
   56800    488.14514   -146045.72            0   -144026.66   -3106.9342 
   56900    487.85691   -146044.54            0   -144026.67   -3242.1838 
   57000    490.51999   -146055.57            0   -144026.68    -2940.473 
   57100    488.05764   -146045.38            0   -144026.68   -3086.9635 
   57200    488.19811   -146045.94            0   -144026.65    -3067.154 
   57300    490.44246   -146055.23            0   -144026.66   -2938.0187 
   57400     487.3669   -146042.49            0   -144026.65   -3158.6666 
   57500     489.3657   -146050.79            0   -144026.68   -3082.5947 
   57600    491.06706   -146057.84            0   -144026.69   -3044.2694 
   57700    486.66738   -146039.62            0   -144026.67   -3186.5998 
   57800    490.67719   -146056.18            0   -144026.65    -2844.806 
   57900    484.50723   -146030.66            0   -144026.64   -3105.9028 
   58000    488.42756   -146046.91            0   -144026.68    -3054.947 
   58100    488.55292   -146047.44            0   -144026.69   -3015.0664 
   58200    490.78774    -146056.7            0   -144026.71   -2830.1543 
   58300    487.80848   -146044.37            0   -144026.69   -3144.5432 
   58400    488.27625   -146046.27            0   -144026.66   -2994.2124 
   58500    489.33236   -146050.65            0   -144026.68   -3053.7848 
   58600    486.70252   -146039.77            0   -144026.67   -3197.8833 
   58700    487.03826   -146041.14            0   -144026.66   -2973.4629 
   58800    489.27127   -146050.39            0   -144026.67   -3021.4691 
   58900    487.29645    -146042.2            0   -144026.65   -3089.1587 
   59000    489.51745    -146051.4            0   -144026.66    -3034.882 
   59100    490.47299   -146055.35            0   -144026.65   -2943.0789 
   59200     483.7901   -146027.64            0   -144026.59   -3124.6832 
   59300    489.55875   -146051.52            0   -144026.61   -2850.6723 
   59400    485.98925   -146036.72            0   -144026.57   -3139.2514 
   59500    492.99581   -146065.67            0   -144026.54   -3012.9175 
   59600    489.68182   -146051.99            0   -144026.57   -3064.0918 
   59700    489.98389   -146053.27            0    -144026.6   -2977.8121 
   59800    488.14669   -146045.64            0   -144026.57   -3046.2329 
   59900    487.94433   -146044.82            0   -144026.58   -2908.9956 
   60000    487.78864   -146044.16            0   -144026.57   -3098.2221 
   60100    491.13424   -146057.99            0   -144026.56   -3147.9748 
   60200    490.30058   -146054.54            0   -144026.56   -2988.1107 
   60300    487.44358   -146042.71            0   -144026.55   -3034.0799 
   60400    486.04149    -146036.9            0   -144026.53   -2999.6395 
   60500    487.68728   -146043.71            0   -144026.54   -3041.4995 
   60600    488.33288   -146046.41            0   -144026.57   -3028.7125 
   60700    489.07489   -146049.46            0   -144026.55   -3029.7955 
   60800    490.63253    -146055.9            0   -144026.55    -2959.182 
   60900    488.08433   -146045.34            0   -144026.52   -3040.8047 
   61000    486.16148   -146037.37            0   -144026.51   -3145.9724 
   61100    490.47245   -146055.18            0   -144026.49   -2971.6637 
   61200    487.34077   -146042.19            0   -144026.45   -3132.1588 
   61300    487.33022    -146042.2            0   -144026.51   -2991.2187 
   61400    489.86373   -146052.65            0   -144026.48    -3009.861 
   61500    490.10421   -146053.65            0   -144026.48   -3018.5878 
   61600    489.17703   -146049.79            0   -144026.46   -2876.3176 
   61700    485.97957   -146036.56            0   -144026.45   -3060.3968 
   61800    486.20408   -146037.51            0   -144026.47    -3091.154 
   61900    486.68707   -146039.52            0   -144026.48   -3029.3921 
   62000    487.20245   -146041.61            0   -144026.45   -2957.6241 
   62100    484.31463   -146029.64            0   -144026.42   -3132.3516 
   62200    490.59474   -146055.67            0   -144026.48   -2923.4953 
   62300    485.79827   -146035.82            0   -144026.47   -2990.4246 
   62400    488.35352   -146046.35            0   -144026.43   -3109.7968 
   62500    488.85146   -146048.42            0   -144026.43   -3158.6201 
   62600    489.46163   -146050.93            0   -144026.43   -3209.8866 
   62700    487.95561   -146044.67            0   -144026.39   -3144.8433 
   62800     487.1846   -146041.45            0   -144026.36   -3051.7525 
   62900    487.31667   -146042.02            0   -144026.38   -3073.1923 
   63000    487.54817   -146042.99            0   -144026.39   -3258.9212 
   63100    487.88373   -146044.38            0   -144026.39   -3096.3939 
   63200     487.4302   -146042.52            0   -144026.41   -3000.3173 
   63300    488.82409   -146048.32            0   -144026.45    -3061.933 
   63400    488.62872   -146047.53            0   -144026.47   -3083.9116 
   63500    488.79146   -146048.17            0   -144026.44   -3074.1032 
   63600    490.27219   -146054.25            0   -144026.39   -3018.6204 
   63700    486.70079   -146039.48            0   -144026.39   -3250.7194 
   63800    491.35721   -146058.76            0   -144026.41   -2959.6111 
   63900    485.75226   -146035.53            0   -144026.36   -3185.8373 
   64000    486.65116   -146039.26            0   -144026.37   -2891.3867 
   64100    487.19889   -146041.56            0   -144026.41   -3078.1222 
   64200    488.78614   -146048.08            0   -144026.37   -3088.4791 
   64300    489.54565   -146051.23            0   -144026.37   -3147.9165 
   64400    487.38708   -146042.28            0   -144026.35   -3149.0131 
   64500    487.36506   -146042.21            0   -144026.37   -3134.7275 
   64600    491.21497   -146058.12            0   -144026.36   -3147.5587 
   64700    485.69151   -146035.23            0   -144026.31   -3280.0113 
   64800    488.34233   -146046.23            0   -144026.35   -3241.3225 
   64900    490.28776   -146054.29            0   -144026.37   -2976.3427 
   65000    489.42362   -146050.72            0   -144026.37   -3234.3326 
   65100    487.92552    -146044.5            0   -144026.34   -3097.8644 
   65200    489.05067    -146049.1            0   -144026.29   -3033.5704 
   65300      489.518   -146051.01            0   -144026.27   -3141.9952 
   65400    485.54108   -146034.51            0   -144026.22    -2959.504 
   65500    489.05079   -146049.03            0   -144026.22   -2975.8204 
   65600    489.17711   -146049.51            0   -144026.18   -3041.8462 
   65700    486.66251   -146039.07            0   -144026.14   -3169.9824 
   65800    491.52673   -146059.19            0   -144026.13   -3017.1085 
   65900    487.61299   -146042.99            0   -144026.13   -3196.7729 
   66000    489.64553   -146051.44            0   -144026.17   -3061.6196 
   66100    489.15472   -146049.44            0    -144026.2   -3186.5173 
   66200    488.98815   -146048.75            0    -144026.2   -3067.6784 
   66300    488.38096   -146046.21            0   -144026.17   -3174.0782 
   66400    488.06702   -146044.87            0   -144026.13   -3131.1465 
   66500    488.21772   -146045.43            0   -144026.07   -3136.6088 
   66600    485.78707   -146035.34            0   -144026.03   -2990.5375 
   66700    489.85546   -146052.18            0   -144026.04    -2994.353 
   66800    488.44131   -146046.33            0   -144026.04   -3141.3736 
   66900    487.68559   -146043.23            0   -144026.06   -3087.6422 
   67000    485.34337   -146033.54            0   -144026.07   -3078.6484 
   67100     487.9389   -146044.24            0   -144026.03   -3022.1029 
   67200    488.50132   -146046.59            0   -144026.06   -3136.7182 
   67300    487.42863   -146042.15            0   -144026.05   -2945.4886 
   67400    489.91222   -146052.45            0   -144026.07   -3054.7775 
   67500    487.14959   -146041.04            0   -144026.09   -3163.4786 
   67600      486.389   -146037.86            0   -144026.06   -3008.1818 
   67700     488.2177   -146045.38            0   -144026.02   -3089.4185 
   67800    486.77282   -146039.39            0   -144026.01   -3008.5315 
   67900    484.95929   -146031.88            0   -144025.99   -3065.1951 
   68000    487.52523   -146042.51            0   -144026.01   -3225.9677 
   68100    489.90484   -146052.34            0   -144025.99   -2982.0066 
   68200     488.4938    -146046.5            0      -144026   -3217.0142 
   68300    488.70136   -146047.34            0   -144025.97   -3048.6513 
   68400    487.07925   -146040.63            0   -144025.97   -3042.2693 
   68500    488.25535   -146045.49            0   -144025.97   -3031.0224 
   68600    488.48595   -146046.41            0   -144025.93   -3031.8475 
   68700    485.03146   -146032.12            0   -144025.94   -3024.8181 
   68800    488.25223   -146045.46            0   -144025.95   -3073.3595 
   68900    489.57274   -146050.91            0   -144025.94   -3133.9721 
   69000    489.29682    -146049.8            0   -144025.97   -3087.2365 
   69100    489.43662   -146050.34            0   -144025.94   -3086.8929 
   69200    486.85716   -146039.65            0   -144025.91   -3096.9016 
   69300    488.92055   -146048.19            0   -144025.92   -3158.7072 
   69400    490.54869   -146054.94            0   -144025.93   -3152.9315 
   69500    489.69462    -146051.4            0   -144025.93   -3037.2595 
   69600    487.65054   -146042.94            0   -144025.92    -3294.117 
   69700    490.70317   -146055.56            0   -144025.92   -3075.0812 
   69800    487.42545   -146042.01            0   -144025.92   -3158.6358 
   69900    490.25295   -146053.68            0    -144025.9   -2994.7466 
   70000    486.83929   -146039.58            0   -144025.92    -3314.975 
   70100    488.97198   -146048.36            0   -144025.88   -2997.4724 
   70200    486.87495    -146039.7            0   -144025.89   -3060.3501 
   70300    487.12752   -146040.73            0   -144025.88   -3078.0719 
   70400    490.32751   -146053.96            0   -144025.87   -3176.9863 
   70500    488.53468   -146046.52            0   -144025.85   -3086.0431 
   70600    489.37848   -146049.97            0   -144025.81   -3211.1411 
   70700      488.061   -146044.47            0   -144025.75   -3132.9762 
   70800    487.68155   -146042.87            0   -144025.72   -3148.0352 
   70900    488.56985   -146046.56            0   -144025.74   -3094.0473 
   71000     489.6856   -146051.16            0   -144025.72   -3120.2631 
   71100     488.2997   -146045.41            0    -144025.7   -3194.5613 
   71200    489.72374   -146051.27            0   -144025.68   -3169.0498 
   71300    487.59195   -146042.43            0   -144025.66   -3057.7678 
   71400    488.03012   -146044.22            0   -144025.63   -3189.5109 
   71500    488.13866   -146044.66            0   -144025.62    -3031.353 
   71600    485.59181    -146034.1            0    -144025.6   -3229.0863 
   71700    486.22745   -146036.71            0   -144025.58   -2949.7737 
   71800     487.4506    -146041.8            0   -144025.61   -3178.4335 
   71900    488.61986   -146046.64            0   -144025.61   -2991.3948 
   72000    488.43006   -146045.89            0   -144025.65   -3175.8544 
   72100    492.11824   -146061.14            0   -144025.65   -2913.9104 
   72200    488.84967   -146047.64            0   -144025.66   -3126.1073 
   72300    488.51695   -146046.27            0   -144025.67    -3066.648 
   72400    487.52482   -146042.18            0   -144025.68   -3077.9786 
   72500    489.74276   -146051.36            0   -144025.69   -2976.7472 
   72600    489.60212   -146050.75            0   -144025.66   -3037.0006 
   72700    487.57257   -146042.34            0   -144025.64   -3063.9558 
   72800    489.03339   -146048.41            0   -144025.67   -3086.5809 
   72900    490.33535    -146053.8            0   -144025.67   -3072.4751 
   73000    490.02159   -146052.52            0    -144025.7   -3054.2955 
   73100    486.12102   -146036.36            0   -144025.67   -3141.8804 
   73200    492.05435   -146060.92            0   -144025.68   -2990.7793 
   73300    488.93341   -146047.97            0   -144025.64   -3231.8154 
   73400    488.47091   -146046.02            0   -144025.61   -3084.5469 
   73500    487.74412   -146043.02            0   -144025.62   -3056.2467 
   73600    490.39877   -146054.03            0   -144025.65   -3074.1521 
   73700     492.1409   -146061.25            0   -144025.66   -3022.5089 
   73800    489.43996   -146050.02            0    -144025.6   -3113.0891 
   73900    489.60279   -146050.64            0   -144025.55   -3052.8637 
   74000    490.12454   -146052.77            0   -144025.52   -3122.6852 
   74100    488.14009   -146044.57            0   -144025.53   -3197.7573 
   74200    489.50614   -146050.23            0   -144025.53   -3008.1412 
   74300    490.18089   -146053.05            0   -144025.57    -3255.373 
   74400     489.3354   -146049.53            0   -144025.54   -3101.2893 
   74500    490.78013    -146055.5            0   -144025.54   -3109.6936 
   74600    488.10379   -146044.42            0   -144025.53   -3081.0528 
   74700    488.96051   -146047.94            0    -144025.5   -3246.5754 
   74800    490.14873   -146052.83            0   -144025.48   -2954.5551 
   74900     488.3326   -146045.26            0   -144025.42   -3076.5626 
   75000    485.95276    -146035.4            0   -144025.41   -3031.6739 
   75100    487.83924   -146043.23            0   -144025.43   -3220.3822 
   75200    486.09603   -146035.99            0    -144025.4   -2980.9694 
   75300    488.74691   -146046.96            0    -144025.4   -2900.8359 
   75400    486.79468   -146038.89            0   -144025.41   -3183.2828 
   75500    488.99944   -146047.98            0   -144025.38   -3133.4824 
   75600    485.30241   -146032.68            0   -144025.37   -3041.8612 
   75700    484.30421   -146028.53            0   -144025.35    -3068.171 
   75800    489.72678   -146050.96            0   -144025.35   -3070.9506 
   75900     487.4552   -146041.56            0   -144025.35   -3270.6351 
   76000    489.66334   -146050.69            0   -144025.34   -2970.3566 
   76100    485.64257   -146034.09            0   -144025.38   -3248.2317 
   76200    488.34583   -146045.27            0   -144025.38   -3024.6856 
   76300    486.49029    -146037.6            0   -144025.38   -3292.2205 
   76400     490.4092   -146053.83            0    -144025.4   -2939.5296 
   76500    490.91613    -146055.9            0   -144025.38   -3106.4318 
   76600    490.99991   -146056.27            0    -144025.4   -3279.0793 
   76700    490.17013   -146052.81            0   -144025.37   -3217.6813 
   76800    490.82882   -146055.53            0   -144025.37   -3027.3171 
   76900    489.39747   -146049.62            0   -144025.38   -3138.7632 
   77000    486.92241   -146039.37            0   -144025.37   -3171.7597 
   77100    489.65191   -146050.66            0   -144025.36   -3058.0333 
   77200    485.28095   -146032.57            0   -144025.35   -3100.2515 
   77300    488.09089   -146044.19            0   -144025.35   -2926.5819 
   77400    486.75074   -146038.66            0   -144025.37   -3074.6946 
   77500    485.85853   -146034.94            0   -144025.33   -3190.4872 
   77600    491.37908   -146057.78            0   -144025.34   -2808.7336 
   77700    488.33783   -146045.21            0   -144025.35   -3224.1456 
   77800    486.43401   -146037.32            0   -144025.33   -3108.3672 
   77900    487.64348   -146042.34            0   -144025.35   -3157.6795 
   78000    493.31222   -146065.79            0   -144025.36   -2957.1758 
   78100    487.35581   -146041.13            0   -144025.33   -3206.8346 
   78200    487.44803   -146041.52            0   -144025.34   -3144.4827 
   78300    491.05147   -146056.44            0   -144025.35   -2860.0084 
   78400    486.73159   -146038.59            0   -144025.37   -3171.4583 
   78500    487.86316   -146043.29            0   -144025.39   -2774.7147 
   78600    487.62992    -146042.3            0   -144025.37    -3064.318 
   78700     487.7971   -146042.98            0   -144025.36   -2930.9803 
   78800     489.0707   -146048.27            0   -144025.37   -3007.6646 
   78900    487.53608   -146041.94            0   -144025.39   -3304.5999 
   79000    491.06904   -146056.51            0   -144025.35   -2842.3856 
   79100    489.06002   -146048.19            0   -144025.34   -3069.4905 
   79200    486.56893   -146037.85            0    -144025.3   -3032.8167 
   79300    487.89211   -146043.35            0   -144025.33   -2997.1575 
   79400    487.41895   -146041.37            0   -144025.31   -3003.6664 
   79500    488.74588   -146046.87            0   -144025.32   -2965.6307 
   79600    487.34118   -146041.03            0    -144025.3   -2996.5372 
   79700    486.82445   -146038.89            0   -144025.29   -3162.9753 
   79800    489.02974   -146048.03            0    -144025.3   -2962.7541 
   79900    488.34905   -146045.21            0    -144025.3   -3106.9977 
   80000    489.21159    -146048.8            0   -144025.33   -2988.1899 
   80100    488.85327   -146047.36            0   -144025.36   -3085.0076 
   80200    489.66227    -146050.7            0   -144025.36   -3064.3434 
   80300    488.02854   -146043.95            0   -144025.37   -3059.3717 
   80400    486.97309   -146039.58            0   -144025.37   -3031.6809 
   80500    486.57073    -146037.9            0   -144025.35   -2865.6135 
   80600    487.39495   -146041.32            0   -144025.36   -3104.9783 
   80700    488.29422   -146045.04            0   -144025.36   -3153.7487 
   80800    488.76768   -146046.99            0   -144025.35   -3046.9594 
   80900    488.47872   -146045.82            0   -144025.38   -2994.6071 
   81000    487.40434   -146041.33            0   -144025.33   -3211.4985 
   81100    487.96828   -146043.65            0   -144025.31   -3234.9506 
   81200    487.77607    -146042.8            0   -144025.26   -3014.0656 
   81300    487.77886   -146042.79            0   -144025.24   -3084.1611 
   81400    486.78299   -146038.65            0   -144025.22   -3092.3722 
   81500    488.77776   -146046.94            0   -144025.26   -3117.0451 
   81600    487.92874   -146043.45            0   -144025.28   -3082.7007 
   81700    488.82713   -146047.17            0   -144025.29   -3099.2415 
   81800    486.55656   -146037.74            0   -144025.25   -2877.2957 
   81900     485.9456   -146035.25            0   -144025.28   -3070.0256 
   82000    488.66555   -146046.52            0    -144025.3   -3127.7051 
   82100    490.31769   -146053.37            0   -144025.32   -3078.1302 
   82200    488.84489   -146047.27            0   -144025.32   -3208.3523 
   82300    490.48053   -146054.07            0   -144025.34   -3089.8362 
   82400    489.77907   -146051.15            0   -144025.33   -3101.0338 
   82500    485.97851   -146035.42            0   -144025.32   -3158.4332 
   82600    488.12259   -146044.29            0   -144025.32   -2963.9835 
   82700     483.1585   -146023.75            0   -144025.31   -3129.2903 
   82800    489.78729   -146051.18            0   -144025.33   -2791.6934 
   82900    487.47183   -146041.58            0   -144025.31   -3106.0179 
   83000     486.7352   -146038.49            0   -144025.26   -3062.7842 
   83100    487.41383    -146041.3            0   -144025.26   -2921.9683 
   83200    486.89403    -146039.1            0   -144025.21   -3076.5407 
   83300    488.76237   -146046.83            0   -144025.21   -2959.2361 
   83400    487.41995   -146041.29            0   -144025.23    -3106.037 
   83500     487.0403   -146039.72            0   -144025.23   -2961.5514 
   83600     489.3582   -146049.29            0   -144025.21   -3045.4292 
   83700    488.09152   -146044.04            0    -144025.2   -3042.8673 
   83800    488.73262   -146046.67            0   -144025.18   -3044.0745 
   83900    488.25866   -146044.68            0   -144025.14   -3091.4979 
   84000    491.31598   -146057.35            0   -144025.17   -3037.1437 
   84100    488.40012    -146045.3            0   -144025.18   -3027.6463 
   84200    487.05301   -146039.74            0   -144025.19   -3031.9431 
   84300    487.27965   -146040.63            0   -144025.15   -2978.7778 
   84400    487.47568   -146041.43            0   -144025.14   -2925.8898 
   84500    487.13357   -146040.06            0   -144025.18   -2960.2896 
   84600    489.88427   -146051.45            0   -144025.19   -3024.0514 
   84700    488.81128   -146047.02            0    -144025.2    -2945.448 
   84800    483.71376   -146025.94            0   -144025.21   -3094.7727 
   84900    489.08418   -146048.17            0   -144025.22   -2854.9748 
   85000    489.69417   -146050.69            0   -144025.22    -2977.231 
   85100    487.19879   -146040.34            0   -144025.19   -3117.9396 
   85200    489.62383   -146050.39            0   -144025.21   -2872.6637 
   85300    487.42582   -146041.27            0   -144025.18   -3019.7324 
   85400    490.36716   -146053.44            0   -144025.19   -2807.2917 
   85500    489.61607   -146050.36            0   -144025.21   -3027.9107 
   85600    485.86321    -146034.8            0   -144025.18   -2939.9006 
   85700     486.4582   -146037.23            0   -144025.15   -2838.5045 
   85800    490.11259   -146052.37            0   -144025.17   -2961.5519 
   85900    486.16492   -146035.97            0    -144025.1   -3008.7115 
   86000    487.25835   -146040.53            0   -144025.14   -3033.5449 
   86100    489.83234   -146051.15            0   -144025.11   -2787.9088 
   86200    484.49473   -146029.07            0   -144025.11   -3021.1019 
   86300    491.19464   -146056.81            0   -144025.13   -2864.9354 
   86400    487.97099   -146043.49            0   -144025.15     -2999.44 
   86500    489.86698   -146051.37            0   -144025.19   -2858.7607 
   86600    487.31563   -146040.79            0   -144025.16   -2985.0686 
   86700    487.92556   -146043.29            0   -144025.14    -2936.312 
   86800    488.35817   -146045.05            0    -144025.1   -2783.1002 
   86900    484.70243   -146029.87            0   -144025.05   -3061.0036 
   87000    487.84596   -146042.88            0   -144025.05   -2848.0475 
   87100    487.72004   -146042.36            0   -144025.06   -2908.6463 
   87200    488.38282   -146045.11            0   -144025.06   -2902.7876 
   87300    486.88573   -146038.91            0   -144025.06   -2958.9631 
   87400    487.15948   -146040.04            0   -144025.05   -2814.7659 
   87500    486.84676   -146038.75            0   -144025.06   -2982.4747 
   87600    489.85191   -146051.23            0   -144025.11   -2963.1372 
   87700     489.2838   -146048.88            0    -144025.1   -2877.0048 
   87800    489.39038   -146049.34            0   -144025.13   -2960.1505 
   87900    487.64615   -146042.13            0   -144025.13    -2928.557 
   88000    487.97131   -146043.45            0    -144025.1   -2915.6058 
   88100    486.82018   -146038.69            0   -144025.11   -2938.0921 
   88200    491.13622   -146056.59            0   -144025.15    -2827.555 
   88300    486.68955    -146038.2            0   -144025.16   -3076.6134 
   88400    488.69224   -146046.48            0   -144025.15   -2828.0413 
   88500    488.12353   -146044.12            0   -144025.15   -2917.3581 
   88600    487.55232   -146041.73            0   -144025.12   -2858.8783 
   88700    487.02374   -146039.57            0   -144025.14   -3002.3863 
   88800    486.69754   -146038.18            0    -144025.1   -2929.8632 
   88900    487.50866   -146041.56            0   -144025.13    -2894.736 
   89000    488.94429    -146047.5            0   -144025.13   -2966.2451 
   89100    484.89395   -146030.71            0    -144025.1   -2997.8745 
   89200    489.48478   -146049.72            0   -144025.11   -2934.7069 
   89300    484.48064   -146028.97            0   -144025.06   -3041.9891 
   89400    489.07256   -146047.97            0   -144025.07   -2897.5796 
   89500    489.79531   -146050.99            0    -144025.1   -3022.4956 
   89600    487.93363   -146043.29            0    -144025.1   -3044.0802 
   89700     489.9651   -146051.72            0   -144025.13   -2983.0909 
   89800    488.36467   -146045.12            0   -144025.15   -2980.6804 
   89900    487.73257    -146042.5            0   -144025.14   -2850.6813 
   90000    486.82044   -146038.71            0   -144025.13   -3040.7365 
   90100    486.49149   -146037.35            0   -144025.13   -3038.5647 
   90200    490.87646   -146055.49            0   -144025.13   -2821.9458 
   90300    488.68214   -146046.42            0   -144025.14    -3069.028 
   90400    490.62818   -146054.45            0   -144025.12   -2956.1628 
   90500    486.92537    -146039.1            0   -144025.08   -2999.4465 
   90600    489.84152   -146051.17            0   -144025.09   -2907.7796 
   90700    487.23734   -146040.39            0   -144025.08   -3031.9003 
   90800    487.02961   -146039.55            0    -144025.1   -2960.8039 
   90900    488.48709   -146045.59            0   -144025.11   -2949.3083 
   91000    486.27108   -146036.41            0    -144025.1   -3107.6679 
   91100    490.23407   -146052.81            0   -144025.11   -3021.9517 
   91200     489.1656   -146048.38            0    -144025.1   -3195.2761 
   91300    486.80016   -146038.58            0   -144025.08    -3060.223 
   91400    487.67783    -146042.2            0   -144025.07   -2924.5774 
   91500    486.76029   -146038.43            0    -144025.1   -3010.2974 
   91600    486.42098   -146037.04            0   -144025.11   -3299.3121 
   91700    489.00296   -146047.73            0   -144025.12    -2958.872 
   91800    486.72153   -146038.29            0   -144025.12   -3309.2771 
   91900    488.65243   -146046.23            0   -144025.06   -3076.6489 
   92000    486.64953   -146037.96            0   -144025.08   -3251.4972 
   92100    491.57231    -146058.3            0   -144025.07   -3064.3172 
   92200      490.196   -146052.62            0   -144025.07   -3368.6616 
   92300    487.67376   -146042.15            0   -144025.03   -2929.5922 
   92400    487.91864   -146043.18            0   -144025.06   -3268.6714 
   92500    488.76558   -146046.69            0   -144025.06    -3052.543 
   92600    486.80483   -146038.56            0   -144025.04   -3138.0034 
   92700    488.78941   -146046.77            0   -144025.04   -3093.8116 
   92800    487.66465    -146042.1            0   -144025.03   -3019.6041 
   92900    486.87095    -146038.8            0   -144025.01   -3165.0876 
   93000     487.2259   -146040.26            0      -144025   -3124.2092 
   93100    487.96253   -146043.33            0   -144025.02   -3041.9146 
   93200    488.56916   -146045.87            0   -144025.05   -3292.3504 
   93300    488.86623   -146047.07            0   -144025.02   -3020.9188 
   93400    489.06469   -146047.91            0   -144025.04   -3166.7263 
   93500    488.50624   -146045.56            0      -144025   -3108.0575 
   93600     487.8416   -146042.79            0   -144024.98   -3186.2379 
   93700    487.51223   -146041.46            0   -144025.01    -3267.528 
   93800    487.37892   -146040.91            0   -144025.01   -3022.3498 
   93900    487.47942   -146041.29            0   -144024.98   -3104.3741 
   94000     487.9385   -146043.22            0   -144025.02   -3109.4903 
   94100    487.43304   -146041.14            0   -144025.02   -3091.7091 
   94200    488.76056   -146046.67            0   -144025.06    -3024.179 
   94300    487.86572   -146042.95            0   -144025.04   -3018.6179 
   94400    487.43952   -146041.17            0   -144025.03   -3025.1794 
   94500      489.032   -146047.74            0   -144025.01   -3152.4341 
   94600    492.61021   -146062.58            0   -144025.04   -2962.1162 
   94700    487.09024    -146039.7            0      -144025   -3060.6367 
   94800    490.23312   -146052.66            0   -144024.96    -2928.084 
   94900    488.49265   -146045.44            0   -144024.94   -2984.6666 
   95000    488.61811   -146045.97            0   -144024.95   -3030.4583 
   95100    489.24893   -146048.62            0   -144024.99   -2849.3965 
   95200     489.6746   -146050.38            0   -144024.99   -2820.7174 
   95300     485.3379   -146032.44            0   -144024.99   -3003.0729 
   95400    488.04761   -146043.69            0   -144025.03   -2930.2458 
   95500    489.21678    -146048.5            0      -144025   -2897.1568 
   95600    488.31106   -146044.75            0      -144025   -2946.3765 
   95700    486.46237   -146037.11            0   -144025.01   -3058.3799 
   95800    488.73043    -146046.5            0   -144025.01   -2984.1129 
   95900    487.31038   -146040.65            0   -144025.04   -2841.7918 
   96000    488.13979   -146044.13            0   -144025.09   -2997.2462 
   96100    488.22591   -146044.49            0   -144025.09   -2972.4052 
   96200    488.47205   -146045.53            0   -144025.11   -2938.8168 
   96300    490.60215   -146054.31            0   -144025.08   -3009.2807 
   96400    486.30615   -146036.52            0   -144025.06   -3010.0207 
   96500    489.59727   -146050.12            0   -144025.05   -2865.8304 
   96600    483.96274   -146026.79            0   -144025.02   -3152.5167 
   96700    491.43293   -146057.71            0   -144025.04   -2766.4866 
   96800    487.47542   -146041.31            0   -144025.02   -3032.0331 
   96900    487.94397   -146043.26            0   -144025.03   -3049.9987 
   97000     490.3793   -146053.35            0   -144025.04   -3101.5277 
   97100    493.18514   -146064.95            0   -144025.04   -2815.4061 
   97200    485.89101   -146034.75            0   -144025.01   -2967.3624 
   97300    489.37528   -146049.18            0   -144025.03   -3080.4616 
   97400    489.08707   -146047.98            0   -144025.02   -2913.9986 
   97500    487.52695   -146041.55            0   -144025.04    -2871.556 
   97600    487.22198   -146040.31            0   -144025.07    -2874.847 
   97700    486.32185   -146036.58            0   -144025.06   -3191.5345 
   97800    493.02572   -146064.34            0   -144025.09   -2799.5693 
   97900    488.02254   -146043.63            0   -144025.07    -2892.952 
   98000    487.09571   -146039.74            0   -144025.02   -3098.1065 
   98100    487.72894   -146042.36            0   -144025.02   -2919.6339 
   98200    488.23126   -146044.43            0   -144025.01   -2998.4766 
   98300    485.58768   -146033.46            0   -144024.98   -3029.3993 
   98400    488.26143   -146044.53            0   -144024.99   -2994.1968 
   98500     488.1075   -146043.89            0   -144024.98   -3020.9051 
   98600     490.0634   -146051.98            0   -144024.98   -3116.8223 
   98700    488.79393   -146046.72            0   -144024.97    -2913.986 
   98800    487.88378   -146042.91            0   -144024.93   -3095.7003 
   98900    486.56261   -146037.42            0   -144024.91   -2950.0515 
   99000    487.64177   -146041.91            0   -144024.92   -2990.9003 
   99100    489.78363   -146050.78            0   -144024.94   -2956.1138 
   99200     489.8908   -146051.22            0   -144024.94   -3022.4028 
   99300    487.93381    -146043.1            0   -144024.91   -3010.3053 
   99400    489.99512   -146051.64            0   -144024.93   -2901.0154 
   99500    487.78274   -146042.44            0   -144024.88   -2964.2842 
   99600     489.2903   -146048.66            0   -144024.86   -3066.0156 
   99700    491.13527   -146056.28            0   -144024.85   -2968.9347 
   99800    485.43444    -146032.7            0   -144024.85   -3076.6593 
   99900    488.91187   -146047.09            0   -144024.85   -2825.9813 
  100000    489.21814   -146048.34            0   -144024.84   -2902.0153 
  100100    490.43594   -146053.35            0   -144024.81    -2994.782 
  100200    487.95372   -146043.06            0   -144024.79   -3088.3042 
  100300    490.11867   -146052.02            0   -144024.79   -2991.2569 
  100400    488.85542   -146046.76            0   -144024.76   -2886.5495 
  100500     490.2573   -146052.52            0   -144024.72   -3039.5139 
  100600     486.8772   -146038.52            0    -144024.7   -3052.2357 
  100700    489.72534   -146050.26            0   -144024.66    -2919.929 
  100800    490.81072   -146054.76            0   -144024.67   -3059.1732 
  100900    489.30141   -146048.49            0   -144024.65   -3062.3273 
  101000    487.82615    -146042.4            0   -144024.65   -2871.7146 
  101100    488.34417   -146044.57            0   -144024.68   -2971.9377 
  101200    489.27527   -146048.42            0   -144024.68   -2969.4195 
  101300    489.27285   -146048.43            0    -144024.7   -2939.7887 
  101400    488.23866   -146044.15            0    -144024.7   -3015.6322 
  101500    488.86791   -146046.74            0   -144024.69   -2987.7297 
  101600    487.65518   -146041.72            0   -144024.68   -3151.8531 
  101700    490.13672   -146051.94            0   -144024.64   -3047.8575 
  101800    486.71681   -146037.76            0    -144024.6   -3068.1391 
  101900    490.89495   -146055.05            0   -144024.62   -3066.1032 
  102000    488.36184   -146044.56            0    -144024.6   -3003.9619 
  102100    488.23749   -146044.03            0   -144024.59   -3017.8985 
  102200    489.23331   -146048.19            0   -144024.62   -2941.1307 
  102300     489.1877   -146047.95            0   -144024.58   -3004.2703 
  102400    487.94333    -146042.8            0   -144024.57   -3002.7616 
  102500    488.27693   -146044.13            0   -144024.52   -2948.4705 
  102600    490.35447   -146052.76            0   -144024.56   -2907.3075 
  102700    487.52736   -146041.03            0   -144024.52   -2918.2091 
  102800    487.73007   -146041.85            0    -144024.5   -2943.5966 
  102900    490.28643   -146052.39            0   -144024.47   -3042.5209 
  103000    491.79611    -146058.6            0   -144024.43   -2897.4957 
  103100    488.51068   -146045.01            0   -144024.44   -2951.8464 
  103200    487.02853   -146038.87            0   -144024.43   -2981.1312 
  103300    490.51032    -146053.3            0   -144024.46   -2889.0369 
  103400    488.84419   -146046.38            0   -144024.42   -2959.3026 
  103500    488.61542   -146045.41            0    -144024.4    -3000.601 
  103600    489.97016   -146050.99            0   -144024.38   -2874.9253 
  103700    487.29631   -146039.92            0   -144024.37   -3037.7484 
  103800    487.31484   -146039.98            0   -144024.35   -2925.6351 
  103900    489.10698   -146047.39            0   -144024.35   -2857.1305 
  104000    488.22988   -146043.84            0   -144024.42   -3078.1156 
  104100    489.41855   -146048.75            0   -144024.41   -2844.0341 
  104200    489.33106   -146048.38            0   -144024.41   -2884.4498 
  104300    488.73741   -146045.97            0   -144024.46   -3130.4616 
  104400    491.01253   -146055.35            0   -144024.43   -2907.3658 
  104500    488.24837   -146043.89            0    -144024.4     -3035.49 
  104600    488.12333    -146043.4            0   -144024.42   -3082.9905 
  104700    488.72641   -146045.92            0   -144024.45   -2989.0763 
  104800    486.56989   -146036.97            0   -144024.42   -2907.0349 
  104900    489.17413   -146047.77            0   -144024.45   -3046.1121 
  105000    487.82436   -146042.19            0   -144024.46   -3006.6015 
  105100    485.43848   -146032.29            0   -144024.42   -2966.7857 
  105200    487.69872   -146041.64            0   -144024.42   -2871.2813 
  105300    485.84675   -146033.94            0   -144024.38   -2946.5877 
[...]
  976400    493.79591    -146003.5            0   -143961.06   -3130.6682 
  976500    497.46768   -146018.69            0   -143961.07   -2995.9085 
  976600    493.31249    -146001.5            0   -143961.06   -3185.6598 
  976700    494.91965   -146008.14            0   -143961.06   -3014.9362 
  976800    494.98926   -146008.44            0   -143961.06   -2949.0525 
  976900    495.28077   -146009.64            0   -143961.06   -3161.6836 
  977000     494.7329   -146007.38            0   -143961.07   -3258.8755 
  977100    498.19924   -146021.72            0   -143961.07   -3027.1681 
  977200    497.50567   -146018.85            0   -143961.07   -3024.3804 
  977300    494.48171   -146006.33            0   -143961.06   -3235.4749 
  977400    497.26968   -146017.87            0   -143961.06   -3129.1361 
  977500     495.6831   -146011.29            0   -143961.05   -3193.2639 
  977600    497.96875   -146020.76            0   -143961.06   -3176.5231 
  977700     494.0099   -146004.35            0   -143961.03   -3142.0884 
  977800    495.92638   -146012.28            0   -143961.03   -3062.5112 
  977900    495.82225   -146011.86            0   -143961.04     -3114.01 
  978000    493.42497   -146001.92            0   -143961.02   -3065.7544 
  978100    497.01946   -146016.82            0   -143961.05   -3071.3334 
  978200    493.55797   -146002.48            0   -143961.03   -3030.9486 
  978300    497.04055   -146016.92            0   -143961.06   -2997.5936 
  978400    493.79643   -146003.49            0   -143961.05    -3179.398 
  978500    497.79037   -146020.02            0   -143961.06    -2939.243 
  978600    495.55603   -146010.76            0   -143961.05    -3083.645 
  978700    493.78849   -146003.43            0   -143961.03   -3054.7044 
  978800    495.89697   -146012.17            0   -143961.04   -3134.8777 
  978900    494.82531   -146007.74            0   -143961.05   -3026.1564 
  979000    496.50196   -146014.71            0   -143961.08   -3196.5593 
  979100    498.51359   -146023.04            0   -143961.09   -2932.8229 
  979200    496.09634   -146013.01            0   -143961.05   -3020.4244 
  979300    494.26676   -146005.43            0   -143961.05   -2996.4633 
  979400    496.63628   -146015.26            0   -143961.07   -3010.4216 
  979500     494.3855   -146005.93            0   -143961.05   -3039.5691 
  979600    494.64176   -146006.98            0   -143961.05   -3038.3271 
  979700     496.1425    -146013.2            0   -143961.06   -3113.3184 
  979800    499.33524   -146026.41            0   -143961.06   -2857.8026 
  979900    493.72498   -146003.18            0   -143961.04   -3201.5405 
  980000    494.08742   -146004.66            0   -143961.01   -2961.5467 
  980100     498.1832   -146021.64            0   -143961.05   -3008.8128 
  980200    495.56937   -146010.82            0   -143961.05   -3146.8288 
  980300    495.70072   -146011.35            0   -143961.04   -3055.1953 
  980400    498.92979   -146024.72            0   -143961.05   -3035.5896 
  980500    496.34052   -146013.99            0   -143961.03   -2917.5013 
  980600    496.91497   -146016.39            0   -143961.05   -2986.2035 
  980700    495.44511   -146010.31            0   -143961.05   -3013.5816 
  980800     498.7926   -146024.14            0   -143961.04   -2895.4531 
  980900    495.50902   -146010.54            0   -143961.02   -3042.2248 
  981000     497.4315   -146018.49            0   -143961.02   -2888.5286 
  981100    493.99701   -146004.28            0   -143961.01   -3034.5522 
  981200    497.48309   -146018.74            0   -143961.05   -2666.8584 
  981300    495.86847   -146012.02            0   -143961.01   -3197.1594 
  981400    496.30333    -146013.8            0   -143960.99   -2771.3531 
  981500    495.62661   -146010.98            0   -143960.97   -3001.9343 
  981600    494.17209   -146004.87            0   -143960.88   -3023.9019 
  981700    497.59351   -146019.08            0   -143960.94   -2967.1719 
  981800    493.59967   -146002.51            0   -143960.89   -2893.9873 
  981900    496.42109   -146014.23            0   -143960.93   -2995.4935 
  982000    496.17256   -146013.19            0   -143960.92   -2980.3287 
  982100    498.24728   -146021.76            0   -143960.91    -2938.984 
  982200    493.14537    -146000.6            0   -143960.85   -3147.3627 
  982300    499.11079    -146025.3            0   -143960.88   -2776.5357 
  982400    495.44379   -146010.13            0   -143960.88   -3051.4851 
  982500    496.41811   -146014.18            0   -143960.89     -2913.24 
  982600     495.1829   -146009.03            0   -143960.86   -2953.3362 
  982700    493.29474   -146001.22            0   -143960.85   -3122.4922 
  982800    495.98708   -146012.36            0   -143960.86   -2874.0488 
  982900    494.41471   -146005.86            0   -143960.86   -3085.2045 
  983000    496.05413   -146012.66            0   -143960.88   -2953.4171 
  983100     493.6472   -146002.64            0   -143960.82   -3044.8649 
  983200    499.25861   -146025.84            0   -143960.81   -3063.2333 
  983300    494.91415   -146007.86            0    -143960.8   -2988.0062 
  983400    497.58369   -146018.95            0   -143960.84   -3078.5591 
  983500    494.95864   -146008.05            0    -143960.8   -3032.0805 
  983600    496.03013   -146012.44            0   -143960.77   -3011.0971 
  983700    495.66364   -146010.96            0    -143960.8   -2924.4997 
  983800    493.21358    -146000.8            0   -143960.77   -2884.5913 
  983900    493.91259   -146003.66            0   -143960.75   -3218.7694 
  984000    496.63034   -146014.88            0   -143960.71   -2866.8572 
  984100    494.56975   -146006.39            0   -143960.75   -3142.5035 
  984200    495.88251    -146011.8            0   -143960.73   -3033.5141 
  984300    496.93049   -146016.15            0   -143960.75   -3119.0286 
  984400    494.45882   -146005.85            0   -143960.67   -3096.7421 
  984500    495.92431   -146011.92            0   -143960.68   -3265.9771 
  984600    499.16413   -146025.26            0   -143960.62   -2901.9642 
  984700    495.32224   -146009.31            0   -143960.56   -3196.7896 
  984800     497.2963   -146017.45            0   -143960.53   -3013.0444 
  984900     494.8946   -146007.54            0   -143960.56   -3107.6516 
  985000    495.32111   -146009.25            0    -143960.5    -3127.813 
  985100    498.10797   -146020.79            0   -143960.52   -2826.1583 
  985200    495.14634   -146008.51            0   -143960.49   -3271.7635 
  985300    494.59203   -146006.29            0   -143960.56   -3080.9968 
  985400    500.18044   -146029.38            0   -143960.53    -3084.656 
  985500    498.56215   -146022.68            0   -143960.52   -3155.8565 
  985600    495.61136    -146010.5            0   -143960.55    -3080.938 
  985700    496.59828    -146014.6            0   -143960.58   -3190.5996 
  985800    497.12219   -146016.72            0   -143960.53   -3097.0564 
  985900    497.43382   -146017.97            0   -143960.49   -3083.6481 
  986000    497.88309   -146019.81            0   -143960.46   -3203.0187 
  986100    497.66438   -146018.87            0   -143960.44   -3055.2637 
  986200    495.43914   -146009.65            0   -143960.42    -3164.939 
  986300    496.52413   -146014.16            0   -143960.44   -3124.9902 
  986400    498.28198   -146021.45            0   -143960.45   -3085.8787 
  986500    495.58992   -146010.31            0   -143960.46   -3197.2574 
  986600    496.39991   -146013.64            0   -143960.43   -3123.0257 
  986700     498.0392   -146020.47            0   -143960.48   -3025.1424 
  986800    496.64918   -146014.68            0   -143960.44   -3069.5827 
  986900    494.95967    -146007.7            0   -143960.45   -3190.3706 
  987000    497.43037    -146017.9            0   -143960.43   -3120.0336 
  987100    497.94899   -146020.08            0   -143960.47   -3184.7723 
  987200    494.64116   -146006.38            0   -143960.45   -3149.7696 
  987300    495.24389   -146008.91            0   -143960.48   -3022.3384 
  987400    494.48016   -146005.68            0   -143960.41   -3245.0196 
  987500    497.55463   -146018.35            0   -143960.36   -2917.1592 
  987600    497.82054   -146019.43            0   -143960.34   -3103.4554 
  987700    494.30795   -146004.89            0   -143960.33   -3198.8941 
  987800    498.80499   -146023.49            0   -143960.33   -3193.3094 
  987900      496.957   -146015.87            0   -143960.36   -3077.4353 
  988000    495.32808   -146009.16            0   -143960.39   -3237.5847 
  988100    496.30835   -146013.19            0   -143960.36   -3060.1568 
  988200          494   -146003.59            0   -143960.31   -3129.0674 
  988300    491.27756   -145992.34            0   -143960.32   -3082.6918 
  988400    494.00363   -146003.67            0   -143960.37   -2994.5471 
  988500    496.18314   -146012.65            0   -143960.34    -3040.122 
  988600    494.68147   -146006.41            0   -143960.31   -3203.9188 
  988700    497.04283   -146016.18            0   -143960.32   -3149.5545 
  988800    498.43726   -146021.93            0   -143960.29   -2830.0746 
  988900    492.36132   -145996.78            0   -143960.28   -3279.7508 
  989000    496.30337   -146013.09            0   -143960.28    -3152.397 
  989100     498.0305   -146020.27            0   -143960.32   -2950.8277 
  989200    494.06019   -146003.81            0   -143960.28   -3251.4318 
  989300     496.3872   -146013.38            0   -143960.23   -2995.4468 
  989400    494.72944   -146006.51            0   -143960.21   -3103.9577 
  989500    495.69637    -146010.5            0    -143960.2   -3121.7974 
  989600    497.46932   -146017.84            0   -143960.21   -3214.2992 
  989700    497.61875   -146018.44            0   -143960.19    -3129.523 
  989800    496.40982   -146013.41            0   -143960.17   -3291.1211 
  989900    494.54233   -146005.67            0   -143960.14   -3211.2219 
  990000    496.84431   -146015.15            0   -143960.11   -2843.1887 
  990100    493.67728   -146002.04            0   -143960.09   -3113.9901 
  990200    492.67158   -145997.86            0   -143960.07   -3252.2828 
  990300    494.68657   -146006.15            0   -143960.03   -3061.1907 
  990400    498.83798    -146023.3            0   -143960.01   -3220.4001 
  990500    498.28289   -146021.05            0   -143960.05   -3151.4072 
  990600    493.51351   -146001.33            0   -143960.06   -3126.3648 
  990700      497.922   -146019.56            0   -143960.06   -3002.3177 
  990800    497.33327   -146017.11            0   -143960.04   -3147.7844 
  990900    494.76692   -146006.46            0   -143960.01   -3095.6728 
  991000    497.10653   -146016.19            0   -143960.06   -3119.1068 
  991100    497.39003   -146017.36            0   -143960.06   -3032.7755 
  991200    496.20384   -146012.47            0   -143960.07   -3098.5387 
  991300    496.24983   -146012.64            0   -143960.06   -3060.0718 
  991400    495.40571   -146009.16            0   -143960.07   -3078.9236 
  991500    496.31712   -146012.92            0   -143960.06   -3092.1739 
  991600    495.29916   -146008.67            0   -143960.02   -2955.4777 
  991700    497.03535   -146015.87            0   -143960.04   -3159.2186 
  991800    495.14838   -146008.03            0      -143960   -3044.5654 
  991900    498.02774   -146019.97            0   -143960.03   -3092.4277 
  992000    495.18464   -146008.17            0   -143959.99   -3204.9342 
  992100    498.90408   -146023.54            0   -143959.97   -2863.7518 
  992200    495.11484   -146007.88            0   -143959.99   -3209.7345 
  992300    497.01796   -146015.68            0   -143959.92   -3020.7596 
  992400    493.99267   -146003.19            0   -143959.94   -3081.7511 
  992500    496.75467   -146014.59            0   -143959.92   -2834.1598 
  992600    495.04651   -146007.52            0   -143959.92   -3117.7342 
  992700    498.86287   -146023.33            0   -143959.93   -3206.3495 
  992800    497.75876   -146018.76            0   -143959.93   -3167.6269 
  992900    497.87991   -146019.24            0   -143959.91   -3120.7556 
  993000    498.10241   -146020.17            0   -143959.92   -3239.4957 
  993100    495.49304   -146009.34            0   -143959.88   -3137.4211 
  993200    496.98928   -146015.53            0   -143959.89   -3123.1107 
  993300    497.23023   -146016.56            0   -143959.91   -3235.2066 
  993400    492.83631   -145998.36            0    -143959.9   -3005.6435 
  993500      494.976    -146007.2            0   -143959.88   -3037.7331 
  993600    496.05652   -146011.66            0   -143959.88   -3155.2192 
  993700    495.39177   -146008.92            0   -143959.88    -3144.576 
  993800    495.45126   -146009.15            0   -143959.87   -3388.3497 
  993900    498.00489    -146019.7            0   -143959.86   -3020.6346 
  994000    498.75734   -146022.84            0   -143959.88   -3194.3641 
  994100    495.97942   -146011.33            0   -143959.87   -3188.6061 
  994200    499.47433   -146025.79            0   -143959.87    -3119.636 
  994300    496.22629   -146012.35            0   -143959.86   -3089.8934 
  994400    497.92122   -146019.36            0   -143959.86    -3128.618 
  994500    495.67881   -146010.06            0   -143959.83   -3070.3086 
  994600    496.65604   -146014.11            0   -143959.85   -3164.4503 
  994700    500.41908   -146029.69            0   -143959.86   -3050.3456 
  994800    496.24429    -146012.4            0   -143959.84   -3111.3328 
  994900    495.61903   -146009.81            0   -143959.83   -3170.9622 
  995000    494.40427   -146004.76            0   -143959.81   -3026.8903 
  995100    495.26625   -146008.33            0   -143959.81   -3104.6325 
  995200    493.23085   -145999.92            0   -143959.82   -3156.9265 
  995300    499.73097   -146026.83            0   -143959.84    -3017.458 
  995400    496.74392   -146014.44            0   -143959.81    -3157.776 
  995500    496.67262   -146014.17            0   -143959.83   -3223.7037 
  995600    497.91961   -146019.32            0   -143959.83   -3026.2453 
  995700    497.02245    -146015.6            0   -143959.82   -3066.7233 
  995800    491.61712   -145993.23            0    -143959.8   -3093.8631 
  995900    495.47852   -146009.22            0   -143959.82   -3296.1256 
  996000    497.03817   -146015.68            0   -143959.84   -3160.0847 
  996100    495.51617   -146009.38            0   -143959.83   -2998.6106 
  996200    495.41597   -146008.96            0   -143959.82    -3093.012 
  996300    497.08985   -146015.91            0   -143959.85   -3089.2893 
  996400    494.40428   -146004.79            0   -143959.84   -3228.8753 
  996500    499.31552   -146025.12            0   -143959.85   -3081.1269 
  996600    495.91782   -146011.03            0   -143959.82   -3063.0817 
  996700     496.4853   -146013.38            0   -143959.82   -3306.3203 
  996800    496.57712   -146013.75            0   -143959.81   -2884.2514 
  996900    496.60575   -146013.89            0   -143959.83   -3190.0939 
  997000    498.59075    -146022.1            0   -143959.83   -3100.2617 
  997100    495.99198   -146011.33            0   -143959.82   -3347.5866 
  997200    496.87334   -146014.97            0    -143959.8   -2963.8819 
  997300    495.54578   -146009.48            0   -143959.81   -3312.9166 
  997400    496.45566   -146013.24            0   -143959.81   -3021.6023 
  997500    498.24047   -146020.63            0   -143959.81   -2950.6938 
  997600    496.02518   -146011.47            0   -143959.81   -3388.0311 
  997700     494.3301   -146004.43            0   -143959.79   -3056.8677 
  997800    495.56019   -146009.58            0   -143959.85   -3187.2756 
  997900    498.09231   -146020.05            0   -143959.85   -2941.1289 
  998000    493.38498   -146000.55            0   -143959.81   -3148.1111 
  998100    497.31298   -146016.84            0   -143959.85   -3131.6137 
  998200    497.15167   -146016.16            0   -143959.84   -2943.9617 
  998300    494.85435   -146006.64            0   -143959.83   -3081.3504 
  998400    497.69476   -146018.39            0   -143959.82   -3074.9321 
  998500     493.6951   -146001.83            0   -143959.81   -3131.4292 
  998600    495.89141   -146010.93            0   -143959.82   -3111.4464 
  998700    496.63712      -146014            0   -143959.82    -3005.677 
  998800    496.76253   -146014.53            0   -143959.82    -3176.644 
  998900    498.29941   -146020.91            0   -143959.84   -3067.6831 
  999000    496.38604      -146013            0   -143959.85   -3166.4206 
  999100    495.54948   -146009.53            0   -143959.84   -3057.5834 
  999200    495.89418   -146010.96            0   -143959.84   -3052.0857 
  999300    496.83513   -146014.86            0   -143959.85   -3086.0299 
  999400    495.52413   -146009.43            0   -143959.85    -2897.108 
  999500    491.28967   -145991.91            0   -143959.84   -3152.0001 
  999600    496.35746   -146012.92            0   -143959.88   -2951.9862 
  999700     495.0423   -146007.47            0   -143959.88   -3085.6594 
  999800    499.13762   -146024.44            0   -143959.91   -3016.3564 
  999900    494.15247   -146003.82            0   -143959.91   -3337.2691 
 1000000    497.59937   -146018.06            0   -143959.89   -2779.2158 
Loop time of 7777.63 on 16 procs for 1000000 steps with 32000 atoms

Performance: 11.109 ns/day, 2.160 hours/ns, 128.574 timesteps/s
99.8% CPU use with 16 MPI tasks x 1 OpenMP threads

MPI task timing breakdown:
Section |  min time  |  avg time  |  max time  |%varavg| %total
---------------------------------------------------------------
Pair    | 4038.2     | 4137.2     | 4231.3     |  98.1 | 53.19
Neigh   | 126.3      | 142.5      | 150.48     |  56.5 |  1.83
Comm    | 2886       | 2991.1     | 3119.3     | 126.6 | 38.46
Output  | 4.0033     | 4.6076     | 5.5492     |  28.5 |  0.06
Modify  | 15.707     | 16.599     | 19.984     |  38.8 |  0.21
Other   |            | 485.6      |            |       |  6.24

Nlocal:    2000 ave 2003 max 1997 min
Histogram: 1 0 0 5 0 5 3 0 1 1
Nghost:    1905.19 ave 1910 max 1897 min
Histogram: 1 0 0 1 2 2 4 3 0 3
Neighs:    0 ave 0 max 0 min
Histogram: 16 0 0 0 0 0 0 0 0 0
FullNghs:  0 ave 0 max 0 min
Histogram: 16 0 0 0 0 0 0 0 0 0

Total # of neighbors = 0
Ave neighs/atom = 0
Neighbor list builds = 31490
Dangerous builds = 0

------------------------------------------------
               Offload Timing Data
------------------------------------------------
  Data Pack/Cast Seconds    47.471176
  Host Neighbor Seconds     3.205383
  Host Pair Seconds         0.000000
  Offload Neighbor Seconds  70.207679
  Offload Pair Seconds      2447.790468
  Offload Wait Seconds      3650.178782
  Offload Latency Seconds   574.366231
  Offload Neighbor Balance  1.000000
  Offload Pair Balance      1.000000
  Offload Ghost Atoms       Yes
------------------------------------------------
Total wall time: 2:09:42

Used hosts:
linuxbmc1348 16.0   (current load is: 0.06)
linuxbmc1349 0   (current load is: 0.33)

Command: /opt/intel/impi/5.0.3.048/bin64/mpiexec.hydra -machinefile /tmp/mh464322/cluster-phi_148378/hostfile-84366 -host cluster-phi -np 16 /rwthfs/rz/cluster/home/mh464322/tersoff-sc16/machines/rwth-sb_phi/lammps-10Mar16/src/lmp_intel_phi_default_vector -in in.tersoff-acc -pk intel 1 mode double -sf intel -v p vanilla


Removing hostfile: /tmp/mh464322/cluster-phi_148378/hostfile-84366
