LAMMPS (10 Mar 2016)
  using 4 OpenMP thread(s) per MPI task
Lattice spacing in x,y,z = 5.431 5.431 5.431
Created orthogonal box = (0 0 0) to (108.62 108.62 54.31)
  4 by 5 by 1 MPI processor grid
Created 32000 atoms
----------------------------------------------------------
Using Intel Package without Coprocessor.
Precision: single
----------------------------------------------------------
Neighbor list info ...
  1 neighbor list requests
  update every 1 steps, delay 5 steps, check yes
  max neighbors/atom: 2000, page size: 100000
  master list distance cutoff = 4.2
  ghost atom cutoff = 4.2
  binsize = 2.1, bins = 52 52 26
Setting up Verlet run ...
  Unit style  : metal
  Current step: 0
  Time step   : 0.001
Memory usage per processor = 11.5754 Mbytes
Step Temp E_pair E_mol TotEng Press 
       0         1000   -148173.55            0   -144037.36    7019.5171 
     100    428.63225   -145807.54            0   -144034.63   -14432.616 
     200    544.38687   -146286.19            0    -144034.5   -1832.4204 
     300    495.83344   -146085.12            0   -144034.25   -3932.6526 
     400    497.73472    -146092.9            0   -144034.17   -2835.6072 
     500    480.34009    -146020.9            0   -144034.12   -3026.0573 
     600    468.04803   -145970.06            0   -144034.12    -4697.698 
     700     501.2812   -146107.59            0   -144034.19   -2304.2598 
     800    487.27218   -146049.63            0   -144034.18     -3862.56 
     900    494.28067   -146078.63            0   -144034.19   -2848.7886 
    1000    479.61417   -146017.94            0   -144034.16   -3799.4388 
    1100    486.37704   -146045.92            0   -144034.17   -3255.3196 
    1200    488.36583   -146054.14            0   -144034.16    -2881.223 
    1300    487.14925   -146049.13            0   -144034.18   -3445.0395 
    1400     488.0952   -146053.05            0   -144034.19   -3425.4076 
    1500    486.32546    -146045.7            0   -144034.17   -3375.9362 
    1600    491.04578   -146065.25            0   -144034.19   -3101.5178 
    1700    485.63443   -146042.83            0   -144034.15   -3119.4311 
    1800    482.76233   -146030.96            0   -144034.16   -3377.4817 
    1900    487.23078   -146049.44            0   -144034.16   -3067.5519 
    2000    488.60137   -146055.15            0    -144034.2    -3482.895 
    2100    488.37085   -146054.17            0   -144034.17   -3067.1937 
    2200    485.20773   -146041.08            0   -144034.17   -3409.1528 
    2300    489.52604   -146058.96            0   -144034.18    -3144.393 
    2400    488.47759   -146054.62            0   -144034.18   -3216.6798 
    2500    486.87268   -146047.98            0   -144034.18   -3277.6331 
    2600    489.66023   -146059.51            0   -144034.18   -3002.9095 
    2700    483.85169   -146035.47            0   -144034.17   -3369.0726 
    2800    491.02069   -146065.15            0   -144034.19   -3055.4343 
    2900    485.26717   -146041.32            0   -144034.16   -3176.1868 
    3000      491.377   -146066.62            0   -144034.18   -3198.1444 
    3100    488.29851   -146053.89            0   -144034.19   -3362.5123 
    3200    488.39642   -146054.28            0   -144034.18   -3232.8103 
    3300    485.77275   -146043.42            0   -144034.17   -3356.8525 
    3400    491.06011   -146065.31            0   -144034.19   -3093.5859 
    3500    486.96913   -146048.38            0   -144034.18   -3301.6223 
    3600    491.93912   -146068.96            0    -144034.2   -3216.4878 
    3700    488.42265    -146054.4            0   -144034.19   -3464.1062 
    3800     490.4313    -146062.7            0   -144034.18   -2970.2272 
    3900    484.38369   -146037.67            0   -144034.16   -3331.2057 
    4000    486.09772   -146044.76            0   -144034.16   -3167.4254 
    4100    489.19608   -146057.59            0   -144034.18   -3094.9087 
    4200    483.98918   -146036.04            0   -144034.16   -3357.3038 
    4300    490.20607   -146061.77            0   -144034.18   -3074.4404 
    4400    485.24086   -146041.22            0   -144034.17   -3468.9453 
    4500    491.56978   -146067.41            0   -144034.18   -2939.0917 
    4600    484.00014   -146036.09            0   -144034.17   -3601.8236 
    4700    491.23758   -146066.03            0   -144034.18   -2948.9574 
    4800    483.15471   -146032.58            0   -144034.16    -3420.307 
    4900    488.12912   -146053.17            0   -144034.17   -3032.6289 
    5000    487.59128   -146050.94            0   -144034.16   -3068.4133 
    5100    483.76849   -146035.13            0   -144034.17    -3527.987 
    5200    491.72877   -146068.07            0   -144034.18   -2841.0584 
    5300    484.51588   -146038.22            0   -144034.17   -3503.0544 
    5400    490.82999   -146064.35            0   -144034.18   -3108.5019 
    5500     486.3635   -146045.88            0   -144034.18   -3282.5533 
    5600    491.68694   -146067.91            0   -144034.19   -3038.5672 
    5700    485.20171   -146041.04            0   -144034.15   -3321.5246 
    5800    485.38999   -146041.82            0   -144034.15   -3278.2987 
    5900    488.82932   -146056.05            0   -144034.16   -2979.5544 
    6000    486.84166   -146047.85            0   -144034.18   -3206.0921 
    6100    484.82439   -146039.49            0   -144034.16   -3245.7049 
    6200    490.55621   -146063.23            0    -144034.2   -3134.3496 
    6300    485.40149   -146041.88            0   -144034.16   -3309.2305 
    6400    490.54426   -146063.17            0   -144034.19      -2979.6 
    6500    487.11748   -146048.99            0   -144034.17   -3308.5336 
    6600    487.79448   -146051.79            0   -144034.18   -3076.3121 
    6700    484.11697   -146036.57            0   -144034.17   -3407.7897 
    6800    487.18543   -146049.25            0   -144034.16   -2910.3717 
    6900    486.54374   -146046.61            0   -144034.17   -3253.7069 
    7000    486.16452   -146045.04            0   -144034.17   -3018.2212 
    7100     487.5317    -146050.7            0   -144034.17   -3020.1608 
    7200    488.06794   -146052.93            0   -144034.18   -3013.0669 
    7300    487.17269   -146049.22            0   -144034.18   -3123.4226 
    7400    486.83556   -146047.81            0   -144034.16   -3150.9447 
    7500    486.07906   -146044.69            0   -144034.17   -3117.2151 
    7600    485.95011   -146044.15            0   -144034.17    -3021.129 
    7700    486.00316   -146044.38            0   -144034.18   -3301.5025 
    7800    490.11217   -146061.39            0   -144034.19   -3021.0647 
    7900    489.00538   -146056.81            0   -144034.19   -3132.4921 
    8000    487.09981   -146048.91            0   -144034.17   -3029.9525 
    8100    485.07899   -146040.55            0   -144034.17   -3061.7357 
    8200    487.60934   -146051.03            0   -144034.18   -3237.3404 
    8300    488.39689   -146054.29            0   -144034.18    -3134.172 
    8400    488.31137   -146053.93            0   -144034.18   -3186.9204 
    8500     488.5698   -146055.01            0   -144034.19   -3257.8913 
    8600    485.74637   -146043.31            0   -144034.17   -3378.2108 
    8700    491.35853   -146066.55            0   -144034.19   -3140.2359 
    8800    488.13916   -146053.22            0   -144034.18   -3279.8542 
    8900    486.01455   -146044.41            0   -144034.16   -3220.6742 
    9000    488.94137   -146056.53            0   -144034.17   -3020.3627 
    9100    485.91483   -146044.01            0   -144034.17   -3360.1919 
    9200    489.54598   -146059.05            0    -144034.2   -3095.5342 
    9300    488.97748   -146056.71            0    -144034.2   -3264.0437 
    9400    488.54883   -146054.92            0   -144034.19   -3160.7372 
    9500    488.43671   -146054.46            0   -144034.19   -3050.8087 
    9600    483.34398   -146033.36            0   -144034.16   -3396.5449 
    9700    491.37567   -146066.62            0   -144034.19   -2940.0783 
    9800    485.89848   -146043.94            0   -144034.16   -3202.6678 
    9900    485.88535    -146043.9            0   -144034.18   -3383.5364 
   10000    488.90169   -146056.37            0   -144034.18   -2990.8771 
   10100    486.02287   -146044.47            0   -144034.19   -3467.2788 
   10200    489.37383   -146058.32            0   -144034.17   -3063.7309 
   10300    487.37993   -146050.07            0   -144034.18   -3072.2397 
   10400    484.73887   -146039.15            0   -144034.18   -3200.5067 
   10500    488.48497   -146054.65            0   -144034.18     -3080.38 
   10600    486.70416   -146047.29            0   -144034.19   -3213.7158 
   10700    488.02446   -146052.75            0   -144034.18   -2941.8501 
   10800    487.96337    -146052.5            0   -144034.19   -3068.2685 
   10900    489.05272   -146057.02            0    -144034.2   -3110.9066 
   11000    489.29816   -146058.02            0   -144034.19   -3199.3687 
   11100    486.99779    -146048.5            0   -144034.18    -3211.905 
   11200    487.81532   -146051.88            0   -144034.18   -3191.5883 
   11300    486.08607   -146044.72            0   -144034.18   -3211.3523 
   11400    486.84399   -146047.86            0   -144034.17   -2996.3393 
   11500    489.43281   -146058.59            0    -144034.2   -3348.4011 
   11600    489.69302   -146059.65            0   -144034.18   -2854.6843 
   11700    487.02387   -146048.61            0   -144034.19   -3265.3888 
   11800    487.56172   -146050.83            0   -144034.18   -3082.4456 
   11900    487.66199   -146051.25            0   -144034.19   -3015.6299 
   12000    485.70723   -146043.16            0   -144034.18   -2983.7995 
   12100     484.5698   -146038.45            0   -144034.17   -3166.6097 
   12200    488.68243   -146055.48            0    -144034.2   -3063.6089 
   12300    486.02141   -146044.46            0   -144034.18   -3161.2018 
   12400    487.69003   -146051.37            0   -144034.19   -3107.1154 
   12500     488.5179   -146054.79            0   -144034.19   -3104.4604 
   12600     487.8864   -146052.18            0   -144034.19   -3040.5621 
   12700    484.27456   -146037.22            0   -144034.16   -3253.3701 
   12800    487.38771   -146050.11            0   -144034.18      -2883.7 
   12900    487.12263   -146049.03            0   -144034.19   -3123.4646 
   13000    484.09376   -146036.47            0   -144034.17   -3132.7786 
   13100    485.52418   -146042.39            0   -144034.17   -3106.3842 
   13200    486.39633   -146046.01            0   -144034.18   -3034.4826 
   13300     489.7989   -146060.09            0   -144034.19   -2893.7361 
   13400    484.56082   -146038.42            0   -144034.18    -3221.444 
   13500     485.6377   -146042.86            0   -144034.17    -3112.887 
   13600    487.83868   -146051.99            0    -144034.2   -3058.0461 
   13700    487.60417      -146051            0   -144034.18   -3049.1739 
   13800    489.19851   -146057.61            0   -144034.19   -3019.0443 
   13900    485.71042   -146043.16            0   -144034.17   -3206.8685 
   14000     485.8874   -146043.91            0   -144034.19   -3176.8791 
   14100    488.03883    -146052.8            0   -144034.18   -2859.6725 
   14200    487.74045   -146051.59            0    -144034.2   -3064.4285 
   14300    489.91269   -146060.56            0   -144034.19   -2730.5543 
   14400    485.01792   -146040.32            0   -144034.19    -3158.829 
   14500    487.58549   -146050.95            0    -144034.2   -3024.7364 
   14600    489.59006   -146059.25            0   -144034.21   -2835.8488 
   14700    487.41455   -146050.24            0    -144034.2   -3034.5571 
   14800    487.79647   -146051.82            0    -144034.2    -3039.501 
   14900      487.771    -146051.7            0   -144034.18   -2945.9938 
   15000    488.25375   -146053.71            0    -144034.2   -3039.3904 
   15100    485.02072   -146040.31            0   -144034.17   -3041.9617 
   15200    487.96708   -146052.51            0   -144034.18   -2886.2137 
   15300    486.54764   -146046.64            0   -144034.18   -2882.2111 
   15400    485.91975   -146044.04            0   -144034.19   -3066.5955 
   15500    486.83878   -146047.86            0    -144034.2   -2886.2071 
   15600    486.08138   -146044.71            0   -144034.18    -3115.559 
   15700    489.37759   -146058.36            0   -144034.19    -2828.988 
   15800    487.35871   -146050.01            0    -144034.2   -2917.1807 
   15900    487.00106   -146048.53            0    -144034.2   -3068.3547 
   16000    490.21917   -146061.84            0    -144034.2   -2978.0895 
   16100    490.18498   -146061.72            0   -144034.22   -2993.4675 
   16200    485.41736   -146041.96            0   -144034.18   -2826.0249 
   16300    486.74638   -146047.48            0    -144034.2   -2978.7431 
   16400    488.84156   -146056.14            0   -144034.19   -2867.9116 
   16500    484.13883   -146036.67            0   -144034.18   -2980.7911 
   16600    489.05225   -146057.02            0    -144034.2   -3030.4352 
   16700     490.2559   -146062.01            0   -144034.21   -2950.6363 
   16800     487.1915   -146049.31            0    -144034.2    -2892.478 
   16900    488.70665   -146055.58            0    -144034.2   -2964.1718 
   17000     488.1082    -146053.1            0   -144034.19   -3081.4795 
   17100    488.29728    -146053.9            0   -144034.21   -2962.0293 
   17200    486.85516   -146047.91            0   -144034.18   -2951.9663 
   17300    489.75497   -146059.92            0    -144034.2   -2978.4432 
   17400    484.56338   -146038.43            0   -144034.18   -2963.3027 
   17500    486.85704   -146047.92            0   -144034.19   -2941.9153 
   17600    490.17179   -146061.65            0    -144034.2   -2844.2833 
   17700    485.94569   -146044.16            0   -144034.19   -3016.7086 
   17800    486.43445   -146046.16            0   -144034.17   -2844.9089 
   17900    486.57753   -146046.77            0   -144034.19   -3075.1894 
   18000     488.2014   -146053.49            0    -144034.2   -2872.4863 
   18100    486.02285   -146044.47            0   -144034.18   -2996.6725 
   18200      484.434   -146037.88            0   -144034.16   -2872.8069 
   18300     486.8824   -146048.01            0   -144034.17   -2835.7249 
   18400    484.64431   -146038.76            0   -144034.17   -3099.5714 
   18500     489.1779   -146057.53            0   -144034.19   -2915.0681 
   18600    485.76257    -146043.4            0   -144034.19   -3015.3429 
   18700    490.69712   -146063.82            0    -144034.2   -2740.7282 
   18800    484.54451   -146038.35            0   -144034.17   -3045.8188 
   18900    486.88458   -146048.04            0   -144034.19    -3111.008 
   19000    489.53782   -146059.01            0   -144034.19   -2812.8259 
   19100     484.0315   -146036.21            0   -144034.16   -2876.1095 
   19200    483.26467   -146033.06            0   -144034.18   -3174.1618 
   19300    490.72928   -146063.95            0    -144034.2   -2817.3791 
   19400    486.77986   -146047.61            0    -144034.2   -3217.9887 
   19500    488.21296   -146053.53            0   -144034.19   -2860.5975 
   19600    487.97891   -146052.57            0    -144034.2    -3089.679 
   19700    489.61987   -146059.36            0   -144034.19   -3017.7114 
   19800    488.66413    -146055.4            0   -144034.19   -2999.7567 
   19900    486.88606   -146048.05            0   -144034.19   -3116.5171 
   20000    488.58162   -146055.07            0    -144034.2    -3044.288 
   20100    488.39718    -146054.3            0    -144034.2   -2840.2678 
   20200    483.60544   -146034.46            0   -144034.18   -3067.5026 
   20300    485.91278   -146043.99            0   -144034.16   -2956.4152 
   20400    487.54358   -146050.77            0   -144034.19   -3000.6585 
   20500    486.30002   -146045.62            0   -144034.19   -2888.2985 
   20600    487.88993   -146052.21            0   -144034.21   -2841.2299 
   20700    484.59672   -146038.57            0   -144034.19   -2966.8599 
   20800    488.38964   -146054.28            0    -144034.2   -2780.0332 
   20900     485.8507   -146043.76            0   -144034.18   -2909.1439 
   21000    486.44145   -146046.22            0    -144034.2   -2992.4604 
   21100    488.44063   -146054.49            0    -144034.2   -2884.3595 
   21200    485.92697   -146044.07            0   -144034.18   -3005.2128 
   21300    491.35345   -146066.54            0   -144034.21   -2910.6453 
   21400    484.68323   -146038.93            0   -144034.18   -3165.8518 
   21500    487.18711   -146049.29            0   -144034.19    -2909.487 
   21600    488.72859   -146055.68            0    -144034.2   -2876.9702 
   21700    485.96853   -146044.26            0    -144034.2   -3127.7352 
   21800    490.19196   -146061.74            0   -144034.21   -2880.6181 
   21900     486.9136   -146048.16            0   -144034.19   -2997.0589 
   22000     487.1896    -146049.3            0   -144034.19   -2814.9723 
   22100    487.41118   -146050.23            0    -144034.2    -3102.358 
   22200    489.27041   -146057.92            0    -144034.2   -2863.1967 
   22300    483.06925   -146032.24            0   -144034.17   -3001.7805 
   22400    487.31929   -146049.84            0   -144034.19   -2886.5425 
   22500    485.31716   -146041.55            0   -144034.18   -2918.1218 
   22600    488.22801   -146053.61            0   -144034.21   -3082.4486 
   22700    488.91241   -146056.44            0    -144034.2   -2989.4696 
   22800    487.97643   -146052.57            0    -144034.2   -3066.2562 
   22900    486.95473   -146048.34            0    -144034.2   -3152.3275 
   23000    488.77778   -146055.89            0   -144034.21   -2971.9632 
   23100    488.99917    -146056.8            0    -144034.2   -3043.5676 
   23200    490.31799   -146062.27            0   -144034.22   -3010.8506 
   23300    486.37433   -146045.94            0    -144034.2   -3139.3137 
   23400    488.94429   -146056.58            0   -144034.21    -3017.699 
   23500    487.52624   -146050.71            0   -144034.21   -3046.2529 
   23600    489.85334   -146060.35            0   -144034.22   -3104.5228 
   23700    488.37683   -146054.24            0   -144034.21   -3041.1145 
   23800    488.66515   -146055.42            0   -144034.21   -3149.6029 
   23900    488.31873   -146053.99            0   -144034.21   -2983.1621 
   24000    487.06496   -146048.78            0   -144034.19   -3052.5617 
   24100    489.03894   -146056.97            0   -144034.21   -3085.2365 
   24200    486.73697   -146047.45            0   -144034.21   -3260.2524 
   24300    489.35864   -146058.28            0    -144034.2   -2848.1807 
   24400    489.54143   -146059.05            0   -144034.21   -3021.2447 
   24500    487.30667   -146049.81            0   -144034.21   -3165.2867 
   24600    489.84774   -146060.32            0   -144034.21   -3088.8432 
   24700    490.35947   -146062.43            0   -144034.21   -3059.3227 
   24800    487.84982   -146052.04            0    -144034.2   -3132.0555 
   24900    488.16526   -146053.35            0    -144034.2   -3044.4503 
   25000    487.28901   -146049.72            0    -144034.2   -3180.6867 
   25100    486.38003   -146045.96            0   -144034.19    -3049.677 
   25200    489.67693   -146059.62            0   -144034.22    -3113.256 
   25300    486.54318   -146046.65            0   -144034.21   -3138.2999 
   25400    488.54955   -146054.94            0    -144034.2   -2944.9401 
   25500    487.12299   -146049.03            0   -144034.19   -3150.6491 
   25600    487.54713   -146050.79            0    -144034.2    -3034.142 
   25700    488.29629    -146053.9            0   -144034.21   -3088.0263 
   25800     485.6517   -146042.94            0   -144034.19    -3139.263 
   25900    487.14106   -146049.12            0   -144034.21   -2910.0268 
   26000    485.12593   -146040.77            0   -144034.19   -2981.9308 
   26100    490.61954   -146063.53            0   -144034.23   -2985.1263 
   26200    487.29444   -146049.76            0   -144034.22   -3160.8323 
   26300    490.57628   -146063.34            0   -144034.22   -2983.5817 
   26400    486.27486   -146045.52            0   -144034.19   -3179.5929 
   26500    484.58714   -146038.52            0   -144034.18   -3006.7123 
   26600    484.76472   -146039.28            0    -144034.2   -3134.8024 
   26700    487.87327   -146052.14            0    -144034.2   -2899.7423 
   26800     488.4119   -146054.38            0   -144034.21   -3061.0413 
   26900     484.4486   -146037.96            0   -144034.19   -3159.4151 
   27000    488.42253   -146054.41            0   -144034.19   -2903.1706 
   27100    485.56595    -146042.6            0    -144034.2   -3272.3324 
   27200    490.09595   -146061.33            0    -144034.2   -2759.6498 
   27300      483.575   -146034.34            0   -144034.18   -3196.7333 
   27400     487.1624    -146049.2            0    -144034.2   -2952.1057 
   27500    487.67948   -146051.34            0    -144034.2   -2984.7685 
   27600    486.97595   -146048.42            0   -144034.19   -3088.0986 
   27700    487.18643    -146049.3            0    -144034.2   -2917.1439 
   27800    487.52872   -146050.72            0   -144034.21   -3076.6758 
   27900    488.46218   -146054.58            0   -144034.21   -2954.0155 
   28000    486.28367   -146045.55            0   -144034.19   -2904.3343 
   28100    485.40292   -146041.92            0    -144034.2   -2830.7904 
   28200    485.85409   -146043.78            0   -144034.19   -2971.0768 
   28300    487.90282   -146052.26            0    -144034.2   -2915.5661 
   28400    489.85246   -146060.36            0   -144034.23   -2988.1258 
   28500    485.92959   -146044.12            0   -144034.22   -3135.3378 
   28600    487.42047   -146050.26            0    -144034.2   -2909.5263 
   28700    486.83721   -146047.85            0    -144034.2   -3067.7233 
   28800    485.86901   -146043.85            0    -144034.2    -3079.167 
   28900    488.87986   -146056.32            0   -144034.22   -3087.2588 
   29000    490.28183   -146062.13            0   -144034.23   -3092.0908 
   29100    489.08382   -146057.17            0   -144034.23   -3128.9428 
   29200    487.95979    -146052.5            0    -144034.2   -2947.2263 
   29300    487.71759   -146051.51            0   -144034.21   -3166.0964 
   29400    489.34525   -146058.25            0   -144034.22   -3046.0573 
   29500     487.5552   -146050.83            0   -144034.21   -3044.3722 
   29600    486.82752    -146047.8            0   -144034.19   -3055.2117 
   29700    485.62623   -146042.85            0   -144034.21   -3239.0669 
   29800    490.33399   -146062.33            0   -144034.21   -3085.5821 
   29900    488.71537   -146055.63            0   -144034.21   -3103.2244 
   30000    487.42613    -146050.3            0   -144034.21   -3180.1837 
   30100    488.29735    -146053.9            0    -144034.2   -3030.5053 
   30200     487.7824   -146051.76            0   -144034.19   -3094.5602 
   30300    485.16449   -146040.92            0   -144034.18   -3090.9668 
   30400    488.28569   -146053.84            0    -144034.2   -3131.1586 
   30500    487.05817   -146048.76            0   -144034.19   -3217.0273 
   30600    488.29443   -146053.88            0    -144034.2   -3119.1557 
   30700    488.43519   -146054.46            0    -144034.2   -3091.3809 
   30800    485.70368   -146043.16            0    -144034.2    -3225.776 
   30900    487.32129   -146049.85            0   -144034.19   -3204.2428 
   31000    486.96571   -146048.38            0    -144034.2   -3065.3557 
   31100     489.7391   -146059.86            0    -144034.2    -3125.224 
   31200    488.74239   -146055.76            0   -144034.22   -3249.2472 
   31300    489.14536   -146057.41            0   -144034.21    -3145.828 
   31400     488.1806   -146053.42            0   -144034.21   -3130.8533 
   31500    486.66827   -146047.15            0   -144034.19   -3099.7518 
   31600    485.98316   -146044.32            0    -144034.2   -3173.5535 
   31700    486.84346   -146047.87            0   -144034.19    -3124.289 
   31800    487.91786   -146052.33            0   -144034.21   -3198.7118 
   31900    487.09122    -146048.9            0   -144034.19   -3142.5701 
   32000    488.82002   -146056.06            0   -144034.21   -3195.4917 
   32100    488.56189   -146054.98            0   -144034.19   -3039.7579 
   32200    486.70037   -146047.29            0    -144034.2   -3296.5655 
   32300    485.69147   -146043.11            0    -144034.2   -3232.1103 
   32400     487.9774   -146052.57            0    -144034.2   -2980.4666 
   32500     486.6645   -146047.15            0   -144034.21   -3205.7354 
   32600    487.43227   -146050.32            0   -144034.21   -3133.8982 
   32700    485.53106   -146042.44            0   -144034.19    -3083.851 
   32800    488.14337   -146053.26            0   -144034.21   -3084.3095 
   32900    487.96104    -146052.5            0    -144034.2   -3073.2634 
   33000    487.02881   -146048.64            0    -144034.2   -3229.1767 
   33100     487.8422      -146052            0   -144034.19   -3152.7207 
   33200    487.54931    -146050.8            0    -144034.2   -3097.3697 
   33300    486.68869   -146047.25            0   -144034.21   -3198.7693 
   33400    488.54805   -146054.93            0    -144034.2   -3021.3887 
   33500    487.69292    -146051.4            0   -144034.21   -3005.9428 
   33600    486.66302   -146047.12            0   -144034.19   -3160.8567 
   33700    487.30789   -146049.81            0   -144034.21   -3036.3907 
   33800    487.69779   -146051.42            0    -144034.2   -3199.4905 
   33900    487.14882   -146049.14            0    -144034.2   -2946.3684 
   34000    488.60175   -146055.15            0    -144034.2   -3062.8556 
   34100    486.82866   -146047.81            0    -144034.2   -3079.8855 
   34200    485.80161   -146043.56            0   -144034.19   -2891.4011 
   34300    489.03949   -146056.97            0   -144034.21   -3220.2365 
   34400    488.18148    -146053.4            0   -144034.19   -2927.6482 
   34500    484.92356   -146039.94            0    -144034.2   -3295.3225 
   34600    491.41971   -146066.82            0   -144034.22   -2829.2119 
   34700    485.96939   -146044.27            0    -144034.2   -3268.6476 
   34800    488.81809   -146056.06            0   -144034.22   -3056.8596 
   34900    487.98145   -146052.59            0    -144034.2    -3026.411 
   35000    489.16713    -146057.5            0    -144034.2   -3040.3035 
   35100    489.99287   -146060.92            0   -144034.22   -3158.3023 
   35200    489.20778   -146057.67            0   -144034.21   -2968.6193 
   35300    486.28111   -146045.54            0   -144034.19   -3116.6935 
   35400    487.09675   -146048.92            0   -144034.19   -2902.8839 
   35500    486.37818   -146045.94            0   -144034.19   -3065.9944 
   35600    488.06056   -146052.91            0   -144034.19   -2916.5345 
   35700    482.89888   -146031.53            0   -144034.16   -3022.0703 
   35800    486.02153   -146044.46            0   -144034.18   -2861.0252 
   35900    489.77267      -146060            0    -144034.2   -3057.6289 
   36000    484.32548   -146037.45            0   -144034.19   -3115.5873 
   36100    488.03453   -146052.82            0   -144034.21   -3069.1049 
   36200    488.26503   -146053.77            0   -144034.21   -2975.4137 
   36300    488.63893   -146055.34            0   -144034.23   -3373.7882 
   36400    487.74111   -146051.59            0   -144034.19   -2859.5671 
   36500    488.00274   -146052.69            0   -144034.21   -3101.5475 
   36600    489.19719   -146057.62            0    -144034.2   -3031.7078 
   36700    486.34404   -146045.81            0   -144034.19   -3105.4548 
   36800    486.44648   -146046.23            0    -144034.2   -2978.4077 
   36900    488.07871      -146053            0   -144034.21   -3038.8645 
   37000    488.64674   -146055.34            0    -144034.2   -3128.5573 
   37100    488.29289   -146053.88            0    -144034.2   -3108.3332 
   37200    487.56576   -146050.87            0    -144034.2   -3068.8625 
   37300    486.80288   -146047.71            0   -144034.19   -2988.7288 
   37400    486.84178   -146047.86            0   -144034.19   -3076.4403 
   37500    487.45157   -146050.39            0    -144034.2   -2975.7333 
   37600    486.20307   -146045.23            0    -144034.2   -3186.0583 
   37700    487.18693    -146049.3            0    -144034.2   -2977.6993 
   37800    490.42528    -146062.7            0    -144034.2   -2829.8448 
   37900    486.14025   -146044.96            0   -144034.19   -3096.8285 
   38000    484.34052   -146037.51            0   -144034.18   -3167.4883 
   38100    486.84017   -146047.85            0   -144034.18   -2851.7757 
   38200     485.9802    -146044.3            0   -144034.19   -3097.1994 
   38300    485.78809   -146043.51            0    -144034.2   -3116.6876 
   38400    488.74206   -146055.74            0    -144034.2   -2976.8608 
   38500    490.20023   -146061.78            0   -144034.22   -2968.9861 
   38600    486.73358   -146047.43            0    -144034.2   -2966.1115 
   38700    486.80319    -146047.7            0   -144034.19   -2892.9066 
   38800    485.76896   -146043.44            0    -144034.2   -3135.6828 
   38900    487.25626   -146049.59            0    -144034.2   -2884.6246 
   39000    485.97361   -146044.28            0   -144034.19   -2907.5433 
   39100    488.48518   -146054.68            0   -144034.21    -2919.084 
   39200    488.51699   -146054.82            0   -144034.21   -2963.2081 
   39300     488.4844   -146054.69            0   -144034.22   -2942.0141 
   39400    490.06335   -146061.21            0   -144034.21   -2810.1103 
   39500    487.37403   -146050.08            0   -144034.21   -2935.8265 
   39600     486.2031   -146045.23            0    -144034.2   -2934.1848 
   39700    487.22975   -146049.47            0    -144034.2   -2765.7511 
   39800    484.52848   -146038.29            0   -144034.19   -3087.4025 
   39900    486.98574   -146048.46            0   -144034.19   -2894.1441 
   40000    485.32135   -146041.57            0   -144034.19   -3059.8955 
   40100    486.52363   -146046.55            0   -144034.19   -2845.3735 
   40200    488.19737   -146053.48            0    -144034.2   -2794.5714 
   40300    485.67506   -146043.04            0    -144034.2   -3038.3413 
   40400    488.50221   -146054.75            0   -144034.21   -2788.1676 
   40500    485.17107   -146040.96            0    -144034.2   -3076.3957 
   40600    486.75088   -146047.49            0   -144034.19   -2899.5206 
   40700    488.02251   -146052.76            0   -144034.21   -2991.4343 
   40800    488.53068   -146054.87            0   -144034.21   -2769.4713 
   40900    484.93725   -146039.98            0   -144034.19   -2933.8547 
   41000    487.78999   -146051.79            0   -144034.19   -2734.9045 
   41100    485.23303   -146041.23            0   -144034.21   -3045.1986 
   41200    486.51912   -146046.53            0   -144034.19   -2636.8886 
   41300     485.9298   -146044.11            0   -144034.21   -2974.3101 
   41400    489.15966   -146057.48            0   -144034.22   -2849.3783 
   41500     487.2844   -146049.71            0   -144034.21    -2764.041 
   41600    490.22286   -146061.89            0   -144034.23   -2781.5769 
   41700    487.84945   -146052.05            0   -144034.21   -2800.1203 
   41800    487.80102   -146051.85            0   -144034.21   -2816.0084 
   41900    485.98703   -146044.34            0    -144034.2   -2866.6459 
   42000    486.84934    -146047.9            0    -144034.2    -2777.011 
   42100    487.52046    -146050.7            0   -144034.22   -2972.5581 
   42200    489.60332   -146059.32            0   -144034.22   -2788.2108 
   42300     487.8736   -146052.15            0   -144034.21   -2713.6316 
   42400    485.94273   -146044.16            0    -144034.2   -2999.0367 
   42500    486.53116   -146046.58            0   -144034.19   -2762.1254 
   42600    486.92838   -146048.24            0   -144034.21   -2844.4893 
   42700    484.92514   -146039.95            0   -144034.21   -2876.8132 
   42800    486.92269   -146048.21            0   -144034.21   -2790.8279 
   42900    487.63699   -146051.16            0    -144034.2   -2679.1398 
   43000    486.99316    -146048.5            0    -144034.2   -2866.7443 
   43100    487.19948   -146049.37            0   -144034.21   -2987.2929 
   43200    485.69516   -146043.12            0   -144034.19   -2798.7462 
   43300    485.25779   -146041.31            0   -144034.19    -2891.326 
   43400    488.56143      -146055            0   -144034.21   -2955.3897 
   43500    486.50551   -146046.49            0   -144034.21    -2993.601 
   43600    487.43622   -146050.34            0   -144034.21   -2958.3623 
   43700    489.41274   -146058.51            0   -144034.21   -2846.1769 
   43800    487.40564   -146050.21            0    -144034.2   -2886.8166 
   43900    484.60784   -146038.61            0   -144034.18   -2796.2699 
   44000    485.59097   -146042.68            0   -144034.18   -2869.6543 
   44100    488.20196    -146053.5            0   -144034.21   -2824.1528 
   44200    487.93328    -146052.4            0   -144034.21   -2940.6864 
   44300     487.4395   -146050.35            0    -144034.2   -2789.5157 
   44400    485.87998   -146043.88            0   -144034.19   -2817.2076 
   44500    484.80381   -146039.43            0   -144034.18   -2788.7612 
   44600    488.43513   -146054.47            0   -144034.21   -2967.3601 
   44700     488.6649   -146055.41            0    -144034.2   -2810.4623 
   44800    486.19066   -146045.18            0    -144034.2   -2898.8443 
   44900    485.19671   -146041.05            0   -144034.19   -2850.4876 
   45000    490.22028   -146061.85            0    -144034.2   -2889.6824 
   45100    486.82295    -146047.8            0    -144034.2    -3093.649 
   45200    488.37923   -146054.23            0    -144034.2   -2928.2024 
   45300    489.59876    -146059.3            0   -144034.22   -2948.6992 
   45400    488.74508   -146055.75            0    -144034.2   -2823.3679 
   45500    486.15063   -146045.02            0    -144034.2   -2985.2269 
   45600    487.44801   -146050.37            0   -144034.19   -2726.4965 
   45700    486.10912   -146044.85            0   -144034.21   -3004.3276 
   45800    488.10719   -146053.11            0    -144034.2   -2845.2067 
   45900    485.00904   -146040.27            0   -144034.18   -2812.9938 
   46000    486.58505   -146046.82            0   -144034.21   -3022.4211 
   46100     487.6702    -146051.3            0   -144034.21   -2839.3202 
   46200    488.24671    -146053.7            0   -144034.21   -2925.9656 
   46300    486.83987   -146047.87            0    -144034.2    -3049.994 
   46400    488.30289   -146053.91            0    -144034.2   -2917.0679 
   46500    486.40038   -146046.05            0    -144034.2   -3030.1038 
   46600    489.77326   -146060.01            0   -144034.21   -2809.3142 
   46700    486.24624   -146045.42            0   -144034.21   -3268.4446 
   46800    489.65722   -146059.52            0    -144034.2   -2688.1993 
   46900    484.31288   -146037.41            0    -144034.2    -3239.919 
   47000    487.58823   -146050.95            0   -144034.19   -2829.0686 
   47100    488.16092   -146053.34            0   -144034.21   -3099.7109 
   47200    487.41192   -146050.23            0   -144034.19   -3040.7863 
   47300     489.8818   -146060.47            0   -144034.23   -3091.2378 
   47400    488.41455   -146054.39            0   -144034.21   -3014.4633 
   47500    491.65563    -146067.8            0   -144034.22   -2988.2783 
   47600    485.08877   -146040.61            0   -144034.19     -3114.92 
   47700     486.0416   -146044.55            0   -144034.19    -2938.801 
   47800    486.56021   -146046.68            0   -144034.18   -3054.4223 
   47900    487.07554   -146048.83            0   -144034.19   -2922.7503 
   48000    489.46719   -146058.74            0   -144034.21   -2908.6533 
   48100    488.10487    -146053.1            0   -144034.21   -2988.6342 
   48200    489.66974   -146059.59            0   -144034.22   -2967.0055 
   48300    486.88294   -146048.02            0   -144034.18   -2857.1576 
   48400    483.29252   -146033.16            0   -144034.17   -3085.0692 
   48500    487.35211   -146049.97            0   -144034.18     -2964.63 
   48600    485.06695    -146040.5            0   -144034.17   -2842.4478 
   48700    484.94989   -146040.04            0   -144034.19   -3106.8674 
   48800    487.79653   -146051.81            0   -144034.19   -2871.9409 
   48900    486.58559   -146046.81            0    -144034.2   -3009.6064 
   49000    488.40019   -146054.33            0   -144034.21   -2959.7959 
   49100    489.98856    -146060.9            0   -144034.22   -2970.7988 
   49200    489.68032   -146059.63            0   -144034.22   -2995.5664 
   49300    488.92911   -146056.51            0    -144034.2   -2941.2508 
   49400    487.24325   -146049.52            0   -144034.18   -2985.2868 
   49500    484.28329   -146037.26            0   -144034.17    -2969.542 
   49600    489.45545   -146058.68            0    -144034.2   -2868.0209 
   49700    485.88746   -146043.92            0   -144034.19   -3118.1325 
   49800    487.03699   -146048.67            0   -144034.19   -2847.0602 
   49900    489.42079   -146058.55            0   -144034.21   -3043.8424 
   50000     489.3551   -146058.27            0    -144034.2   -2835.3967 
   50100    488.63061   -146055.28            0   -144034.21   -3081.7698 
   50200    489.53874   -146059.04            0   -144034.21   -3010.4895 
   50300    488.33906   -146054.07            0    -144034.2   -3053.9395 
   50400    486.89338   -146048.07            0   -144034.18    -2856.463 
   50500    484.92426   -146039.92            0   -144034.18    -2912.332 
   50600    488.01094    -146052.7            0   -144034.19   -2976.0281 
   50700    488.27469    -146053.8            0    -144034.2   -2898.2506 
   50800    488.51732   -146054.81            0   -144034.21   -3239.6713 
   50900    487.59466   -146050.97            0   -144034.18   -2918.9336 
   51000    488.93901   -146056.55            0    -144034.2   -3076.5802 
   51100    489.33852    -146058.2            0    -144034.2   -2944.0746 
   51200    484.51914   -146038.24            0   -144034.18   -3229.9486 
   51300    487.43734   -146050.31            0   -144034.18   -2859.6919 
   51400    486.12531    -146044.9            0   -144034.19   -2920.5567 
   51500    488.01616   -146052.73            0    -144034.2   -3214.6971 
   51600    488.28004   -146053.82            0    -144034.2    -2946.288 
   51700    484.73736   -146039.14            0   -144034.18   -3002.4365 
   51800    487.48625   -146050.53            0   -144034.19   -3004.8098 
   51900    486.44723   -146046.22            0   -144034.18   -2964.4206 
   52000    486.23844   -146045.35            0   -144034.17   -2966.7361 
   52100    486.03494   -146044.52            0   -144034.18   -3081.0367 
   52200    487.60977   -146051.04            0   -144034.19   -3039.1796 
   52300    484.51523   -146038.23            0   -144034.18   -3045.2528 
   52400    489.14866   -146057.41            0   -144034.19   -2910.4559 
   52500    487.63531   -146051.16            0    -144034.2   -3101.9075 
   52600    487.46793   -146050.46            0   -144034.19   -3044.3318 
   52700     487.0287   -146048.64            0   -144034.19   -3096.4596 
   52800    488.71096    -146055.6            0    -144034.2   -3119.4427 
   52900    489.26571    -146057.9            0    -144034.2   -3062.9935 
   53000    487.47777   -146050.51            0    -144034.2   -3193.8372 
   53100    487.64672   -146051.19            0   -144034.19   -3103.9338 
   53200     491.0254   -146065.18            0   -144034.21   -2957.9461 
   53300    485.24925   -146041.27            0   -144034.19   -3231.7263 
   53400     488.8048   -146055.98            0   -144034.19   -3056.5075 
   53500      487.758   -146051.66            0   -144034.19   -2935.6803 
   53600    486.20843   -146045.24            0   -144034.19    -3026.905 
   53700    486.96013   -146048.34            0   -144034.18   -3015.5924 
   53800    486.54913   -146046.66            0    -144034.2   -3073.4226 
   53900    488.62473   -146055.27            0   -144034.22   -3150.4063 
   54000    488.17733   -146053.39            0   -144034.19   -3121.7091 
   54100    487.11215   -146048.99            0    -144034.2   -2953.4327 
   54200    486.58109   -146046.81            0   -144034.21   -3183.1178 
   54300    489.63337   -146059.42            0    -144034.2   -2705.5343 
   54400    486.23852   -146045.37            0    -144034.2   -3010.8652 
   54500    486.84396   -146047.87            0   -144034.19   -2950.1288 
   54600    487.47801   -146050.51            0   -144034.21   -2977.1836 
   54700    486.68633   -146047.21            0   -144034.19   -3087.5428 
   54800    486.54483   -146046.63            0   -144034.19    -2871.756 
   54900    485.93508   -146044.13            0   -144034.21   -3202.6728 
   55000    488.41956   -146054.41            0   -144034.21   -2824.0398 
   55100    486.57592   -146046.78            0   -144034.21    -3156.575 
   55200    489.57301   -146059.17            0    -144034.2    -2891.254 
   55300    489.28316   -146057.99            0   -144034.22   -3154.2355 
   55400    490.16228   -146061.63            0   -144034.22   -3012.8432 
   55500    487.87411   -146052.15            0   -144034.21   -3075.8981 
   55600    486.94168   -146048.27            0   -144034.19   -2996.8089 
   55700    486.93071   -146048.24            0    -144034.2   -3103.9064 
   55800    485.81535   -146043.62            0   -144034.19   -3048.5439 
   55900    487.84646   -146052.03            0    -144034.2   -2882.9277 
   56000    486.90859   -146048.15            0   -144034.21   -3044.9661 
   56100    489.02259   -146056.89            0    -144034.2   -2942.4958 
   56200    487.01084   -146048.58            0   -144034.21   -3157.1611 
   56300    489.40185   -146058.45            0   -144034.19   -2815.5603 
   56400    485.82666   -146043.67            0    -144034.2   -3070.2584 
   56500     487.7594   -146051.68            0   -144034.21   -3020.1281 
   56600    488.10177    -146053.1            0   -144034.21   -3112.5031 
   56700    489.55869   -146059.13            0   -144034.22   -3022.0225 
   56800    487.91018   -146052.29            0    -144034.2   -2996.8024 
   56900    488.22518    -146053.6            0    -144034.2   -2865.8475 
   57000    489.77296   -146060.02            0   -144034.22   -3116.9753 
   57100    489.53601   -146059.04            0   -144034.22   -3162.7692 
   57200    488.41262   -146054.38            0   -144034.21   -2898.1128 
   57300    489.09608   -146057.21            0   -144034.21   -3232.7572 
   57400    488.24821   -146053.69            0    -144034.2   -2912.8143 
   57500    484.66907   -146038.87            0   -144034.19   -3125.8849 
   57600     488.2477    -146053.7            0   -144034.21   -2914.4963 
   57700    484.55235   -146038.39            0   -144034.18   -2929.2172 
   57800     487.0204   -146048.61            0    -144034.2   -2983.0178 
   57900    488.83649   -146056.12            0    -144034.2   -2893.6452 
   58000    485.43022   -146042.04            0    -144034.2   -3240.4504 
   58100    489.71822   -146059.77            0    -144034.2   -2762.7118 
   58200    486.06657   -146044.67            0    -144034.2   -3194.6047 
   58300    485.21946   -146041.15            0   -144034.18   -2971.7013 
   58400    487.30312   -146049.78            0   -144034.19   -3029.2682 
   58500    488.74241   -146055.74            0    -144034.2   -2933.1718 
   58600    485.76345   -146043.41            0    -144034.2   -3145.1521 
   58700     484.8245   -146039.51            0   -144034.18   -2966.1601 
   58800    489.59185   -146059.26            0   -144034.21   -3067.2557 
   58900    488.04292   -146052.85            0   -144034.21   -3126.5978 
   59000    488.04282   -146052.84            0    -144034.2   -2877.4308 
   59100    487.56663   -146050.87            0    -144034.2   -2990.8586 
   59200    486.19996   -146045.21            0   -144034.19   -3180.7444 
   59300    489.00395   -146056.81            0   -144034.19    -2888.586 
   59400    484.04836   -146036.29            0   -144034.18   -3076.1987 
   59500    486.64454   -146047.06            0    -144034.2   -2937.5681 
   59600    488.35962   -146054.15            0    -144034.2   -2946.1054 
   59700    485.03891   -146040.42            0    -144034.2   -3271.2617 
   59800    488.69577   -146055.53            0   -144034.19    -2907.484 
   59900    489.25883   -146057.88            0   -144034.21   -3129.0308 
   60000    487.06082   -146048.78            0    -144034.2   -3094.4346 
   60100    485.13487    -146040.8            0   -144034.19   -3206.4278 
   60200    488.16208   -146053.33            0    -144034.2   -3007.0785 
   60300    485.63641   -146042.88            0   -144034.19   -3139.1048 
   60400    485.19765   -146041.05            0   -144034.18   -2908.1299 
   60500    484.62604   -146038.68            0   -144034.17     -2862.44 
   60600    486.48636   -146046.39            0   -144034.19   -3061.5301 
   60700    487.37111   -146050.05            0   -144034.19   -3005.3166 
   60800     486.6251   -146046.97            0    -144034.2   -3019.8657 
   60900    484.75977   -146039.24            0   -144034.18   -3105.4407 
   61000    486.78913   -146047.66            0    -144034.2   -3050.3849 
   61100    490.18701   -146061.72            0   -144034.21   -2751.8627 
   61200    485.63676    -146042.9            0   -144034.21   -3300.5272 
   61300    489.09261   -146057.19            0    -144034.2    -2783.363 
   61400    484.94074      -146040            0   -144034.19   -3189.8563 
   61500     490.1214   -146061.45            0   -144034.21   -2856.0353 
   61600    489.19309   -146057.62            0   -144034.22   -3095.4993 
   61700    488.28604   -146053.85            0   -144034.21   -3017.6603 
   61800    487.99097   -146052.63            0    -144034.2   -3004.8031 
   61900    488.86691   -146056.25            0    -144034.2   -3050.1129 
   62000     490.6982   -146063.85            0   -144034.22   -3061.0088 
   62100     485.9563    -146044.2            0   -144034.19   -3025.3508 
   62200    486.97155   -146048.41            0    -144034.2   -2879.1649 
   62300    488.00773   -146052.71            0   -144034.21   -2964.6673 
   62400    486.82418   -146047.81            0   -144034.21    -3135.027 
   62500    488.92165    -146056.5            0   -144034.22     -2925.94 
   62600    488.50754   -146054.77            0   -144034.21   -3069.8935 
   62700     489.3509   -146058.27            0   -144034.22   -3027.1327 
   62800     487.2312   -146049.49            0    -144034.2   -2918.5586 
   62900    488.90297   -146056.42            0   -144034.22   -2941.4833 
   63000    484.90984   -146039.87            0   -144034.19   -3075.2136 
   63100    492.02794   -146069.35            0   -144034.23   -2729.6454 
   63200    485.92653   -146044.09            0    -144034.2   -3183.2765 
   63300    489.27121   -146057.94            0   -144034.22   -3149.5135 
   63400    488.84164   -146056.14            0    -144034.2   -2767.9307 
   63500    486.56403   -146046.71            0   -144034.19   -2978.9595 
   63600    486.82786   -146047.81            0    -144034.2   -3024.4516 
   63700    485.82682   -146043.66            0   -144034.19   -3046.5526 
   63800    485.77616   -146043.45            0   -144034.18   -2852.6136 
   63900    487.85715   -146052.09            0   -144034.21   -3021.1998 
   64000    489.46273   -146058.72            0    -144034.2   -2869.7197 
   64100    486.73201   -146047.43            0   -144034.21   -3077.2872 
   64200    488.04806   -146052.86            0    -144034.2   -2898.0719 
   64300    486.85523   -146047.94            0   -144034.21   -3206.6844 
   64400    489.32829   -146058.16            0   -144034.21   -3058.1194 
   64500    487.00846   -146048.56            0    -144034.2   -3047.5391 
   64600    485.99418   -146044.34            0   -144034.18   -2794.1464 
   64700    484.64341   -146038.77            0   -144034.19    -3108.739 
   64800    487.87752   -146052.15            0   -144034.19   -2884.6419 
   64900    488.13645   -146053.23            0    -144034.2   -2992.1467 
   65000    488.40568   -146054.35            0    -144034.2   -2940.8773 
   65100    485.39293   -146041.87            0   -144034.19   -3042.1067 
   65200    486.34217    -146045.8            0    -144034.2   -3026.6317 
   65300    487.71809   -146051.49            0   -144034.19   -2959.8821 
   65400    487.39428   -146050.15            0   -144034.19   -2912.8431 
   65500     486.4209   -146046.13            0    -144034.2   -3106.9498 
   65600    488.76491   -146055.84            0   -144034.21   -2914.2149 
   65700    489.18248   -146057.57            0   -144034.22   -3051.4364 
   65800     488.3556   -146054.14            0    -144034.2   -2909.5226 
   65900     487.5827   -146050.94            0    -144034.2    -3029.882 
   66000    486.03879   -146044.54            0   -144034.19   -2932.8357 
   66100    487.66938   -146051.29            0   -144034.19   -2872.9707 
   66200    487.82279   -146051.95            0   -144034.22   -3139.3716 
   66300    488.23743   -146053.63            0   -144034.19   -2854.4213 
   66400    485.90488   -146043.99            0   -144034.19   -3000.9209 
   66500    488.04294   -146052.83            0   -144034.19   -2999.7255 
   66600    487.42138   -146050.27            0    -144034.2   -3090.3019 
   66700    490.50758   -146063.04            0    -144034.2   -2836.3966 
   66800    483.37762   -146033.53            0   -144034.18   -3138.5991 
   66900    489.71448   -146059.76            0    -144034.2   -2906.0931 
   67000    485.49731    -146042.3            0   -144034.19   -3081.8579 
   67100    486.88581   -146048.04            0   -144034.19   -2828.6249 
   67200    489.90405   -146060.55            0   -144034.21   -2907.4096 
   67300    486.32811   -146045.75            0    -144034.2   -3114.8595 
   67400    486.52342   -146046.54            0   -144034.19   -3075.4492 
   67500    488.94857   -146056.58            0   -144034.19   -2913.1698 
   67600    487.84292   -146052.01            0    -144034.2   -3047.7351 
   67700    487.42279   -146050.27            0    -144034.2   -2988.7501 
   67800    490.22039   -146061.86            0   -144034.21   -2989.5078 
   67900    485.95298    -146044.2            0    -144034.2   -3213.5319 
   68000    487.92685   -146052.34            0   -144034.18   -2881.5244 
   68100    485.59459   -146042.72            0    -144034.2   -3203.3603 
   68200    488.66691   -146055.42            0    -144034.2   -2811.6984 
   68300    486.42732   -146046.15            0    -144034.2   -3145.2444 
   68400    492.29303   -146070.43            0   -144034.21   -2832.9432 
   68500    485.81122    -146043.6            0   -144034.19   -3072.5465 
   68600    490.25733      -146062            0    -144034.2   -2947.6937 
   68700    485.67237   -146043.03            0   -144034.19   -3020.7798 
   68800     487.6974   -146051.41            0    -144034.2    -2995.483 
   68900     486.9362   -146048.26            0   -144034.19   -2969.4671 
   69000     488.1645   -146053.33            0   -144034.19   -2927.5205 
   69100    488.18229   -146053.44            0   -144034.22   -3162.4988 
   69200     487.3631   -146050.03            0    -144034.2   -3078.4838 
   69300    489.65458   -146059.51            0    -144034.2   -2840.1338 
   69400    490.80714   -146064.29            0   -144034.22   -3088.3608 
   69500     484.9079   -146039.86            0   -144034.18   -3055.1568 
   69600    489.22239   -146057.72            0    -144034.2   -2913.3112 
   69700     486.1412   -146044.96            0   -144034.19   -3028.0063 
   69800    486.80678   -146047.72            0   -144034.19   -3127.9572 
   69900    486.71393   -146047.33            0   -144034.18   -2900.9498 
   70000    488.66459   -146055.43            0   -144034.22   -3077.6896 
   70100    487.54309   -146050.78            0   -144034.21    -3010.008 
   70200    488.72153   -146055.66            0   -144034.21   -2997.1603 
   70300    488.52319   -146054.84            0   -144034.21   -3070.9827 
   70400    489.48636   -146058.84            0   -144034.23   -3039.3218 
   70500    488.74668   -146055.76            0   -144034.21   -3030.5666 
   70600     487.5174   -146050.67            0    -144034.2   -3086.3364 
   70700    489.08574   -146057.16            0   -144034.21   -2862.0358 
   70800    486.02215   -146044.48            0    -144034.2   -3133.8584 
   70900    491.58612    -146067.5            0   -144034.21   -2861.6847 
   71000    487.24902   -146049.56            0    -144034.2   -2962.0055 
   71100    488.64196   -146055.32            0    -144034.2   -3083.2318 
   71200    486.65284    -146047.1            0   -144034.21    -3084.007 
   71300    488.96969   -146056.68            0    -144034.2   -2972.8372 
   71400    487.27193   -146049.65            0    -144034.2   -3155.3068 
   71500     486.5002   -146046.45            0   -144034.19   -3029.0284 
   71600    485.20937   -146041.09            0   -144034.17      -3007.3 
   71700    485.67797   -146043.04            0   -144034.19   -3239.5054 
   71800    488.33795   -146054.05            0   -144034.19    -3011.453 
   71900    485.12436   -146040.76            0   -144034.19   -3127.6403 
   72000    490.74614   -146064.03            0   -144034.21   -2978.1828 
   72100    489.47657   -146058.78            0   -144034.21   -3137.1961 
   72200     485.8939   -146043.93            0   -144034.18   -3049.4131 
   72300    485.48889   -146042.25            0   -144034.17   -2997.1579 
   72400    484.26293   -146037.19            0   -144034.18   -3333.0562 
   72500    488.30194    -146053.9            0   -144034.18   -2955.9569 
   72600    487.33149    -146049.9            0   -144034.21   -3041.2613 
   72700    490.25542   -146062.01            0   -144034.22   -3114.3799 
   72800    488.95741   -146056.64            0   -144034.21   -3192.9383 
   72900    489.21734   -146057.71            0   -144034.21   -3093.3209 
   73000    486.27391   -146045.52            0   -144034.19   -3080.9529 
   73100    487.43833   -146050.34            0    -144034.2   -3101.2141 
   73200    486.26875   -146045.48            0   -144034.18    -3029.484 
   73300    485.86073    -146043.8            0   -144034.19   -3223.1042 
   73400    488.35545   -146054.13            0   -144034.19   -2930.9583 
   73500    486.07887   -146044.72            0    -144034.2   -3299.8155 
   73600    492.89795   -146072.94            0   -144034.21   -2815.5074 
   73700    485.76182   -146043.41            0    -144034.2   -3277.5176 
   73800    488.70225   -146055.58            0   -144034.21   -3086.1008 
   73900    485.11706   -146040.72            0   -144034.18   -3008.1179 
   74000    489.36277   -146058.31            0   -144034.21   -3035.1166 
   74100    486.31606   -146045.69            0   -144034.19   -3030.1491 
   74200    485.46951   -146042.18            0   -144034.18   -3160.3863 
   74300    488.65641   -146055.39            0   -144034.21   -3140.9136 
   74400    488.86335   -146056.24            0   -144034.21   -3026.1677 
   74500    486.53039   -146046.58            0   -144034.19   -3175.5502 
   74600    489.87624   -146060.43            0    -144034.2   -2988.2489 
   74700    485.23392   -146041.21            0   -144034.18   -3178.3346 
   74800    485.77804   -146043.46            0   -144034.19   -3047.7249 
   74900    488.93589   -146056.54            0    -144034.2   -3012.8386 
   75000    485.91386   -146044.02            0   -144034.18   -3006.6048 
   75100     483.9413   -146035.86            0   -144034.19   -3283.7229 
   75200    486.15936   -146045.03            0   -144034.18   -2901.9859 
   75300    486.75878   -146047.52            0    -144034.2   -3091.6617 
   75400    487.20816   -146049.39            0    -144034.2   -3023.2061 
   75500    488.27306    -146053.8            0   -144034.21   -2974.2336 
   75600    489.75156   -146059.93            0   -144034.22   -3054.3754 
   75700    489.00555   -146056.83            0   -144034.21   -2958.2535 
   75800     486.1506   -146045.02            0    -144034.2   -3185.7105 
   75900    486.55052   -146046.67            0    -144034.2   -3019.1951 
   76000    488.19853   -146053.48            0    -144034.2    -3058.376 
   76100     487.4016   -146050.19            0    -144034.2   -3123.9019 
   76200    488.72124   -146055.67            0   -144034.23   -3186.0062 
   76300    492.05317   -146069.44            0   -144034.22    -2823.988 
   76400    485.34329   -146041.69            0   -144034.21    -3271.488 
   76500    487.82509   -146051.94            0    -144034.2   -2976.3781 
   76600    486.33321   -146045.77            0    -144034.2   -2956.5377 
   76700    488.62874   -146055.28            0   -144034.21   -3059.0926 
   76800    487.71745   -146051.49            0    -144034.2   -2866.7505 
   76900    486.64925   -146047.07            0   -144034.19   -3083.1336 
   77000    488.04204   -146052.84            0    -144034.2   -2916.6155 
   77100    489.21987   -146057.72            0   -144034.21   -3075.4679 
   77200    485.35784   -146041.72            0   -144034.19   -2903.0707 
   77300    484.50776   -146038.21            0   -144034.19    -3104.569 
   77400    486.65016   -146047.08            0    -144034.2   -2908.7166 
   77500    486.69668   -146047.27            0   -144034.19   -3016.2834 
   77600    489.54928    -146059.1            0   -144034.23   -3109.7021 
   77700    487.89551   -146052.24            0   -144034.21   -2986.7037 
   77800    487.20181   -146049.36            0   -144034.19   -3001.7976 
   77900     485.9766   -146044.28            0   -144034.19   -3001.7356 
   78000    487.28467   -146049.69            0   -144034.19   -3060.1432 
   78100    489.07295   -146057.11            0    -144034.2   -2958.4076 
   78200    486.21482   -146045.29            0   -144034.21   -3346.6934 
   78300    490.28555   -146062.14            0   -144034.22   -3015.6311 
   78400    487.69042   -146051.39            0    -144034.2   -3167.7311 
   78500    488.21983   -146053.58            0    -144034.2   -3068.7565 
   78600    490.35168   -146062.39            0    -144034.2   -2930.1375 
   78700    486.68725   -146047.24            0   -144034.21   -3228.3853 
   78800    491.06174   -146065.35            0   -144034.22   -2968.5417 
   78900    485.67032   -146043.03            0    -144034.2   -3102.3879 
   79000    487.39148   -146050.14            0   -144034.19   -3112.1328 
   79100    487.91111   -146052.29            0    -144034.2   -2999.8732 
   79200    487.38214    -146050.1            0   -144034.19   -3090.1921 
   79300    486.61645   -146046.95            0   -144034.21   -3099.3133 
   79400    488.16411   -146053.34            0    -144034.2   -3018.4539 
   79500    486.91235   -146048.14            0   -144034.18    -2883.879 
   79600    487.39842   -146050.18            0   -144034.21   -3195.6162 
   79700    487.16475    -146049.2            0   -144034.19   -2906.9373 
   79800    487.50462   -146050.63            0   -144034.22   -3045.8539 
   79900    489.95824   -146060.76            0    -144034.2   -2942.6592 
   80000    484.61575   -146038.65            0   -144034.19   -2993.0789 
   80100    487.39908   -146050.17            0    -144034.2    -2944.871 
   80200    486.08704   -146044.74            0   -144034.19   -2874.8902 
   80300    488.75978   -146055.82            0   -144034.22   -3200.7845 
   80400     490.0611    -146061.2            0   -144034.21   -2925.8658 
   80500    486.44597   -146046.23            0   -144034.19   -3032.8348 
   80600    487.13165   -146049.06            0   -144034.19   -2898.7792 
   80700    486.22894   -146045.33            0    -144034.2   -3015.7232 
   80800    486.08777   -146044.75            0   -144034.19   -2951.0312 
   80900     488.9214   -146056.47            0    -144034.2    -2932.282 
   81000    486.43769   -146046.19            0   -144034.19   -3071.6213 
   81100     488.9416   -146056.56            0    -144034.2   -3035.3471 
   81200    487.35794   -146050.02            0   -144034.21   -3063.7768 
   81300    489.64695    -146059.5            0   -144034.22   -3028.4572 
   81400    490.41652   -146062.68            0   -144034.22   -3189.6019 
   81500     488.1075    -146053.1            0   -144034.19   -2957.6147 
   81600     487.1513   -146049.16            0   -144034.21   -3202.9622 
   81700    488.68634   -146055.51            0   -144034.21   -3028.9691 
   81800    487.77095   -146051.71            0    -144034.2   -3080.2035 
   81900    487.72559   -146051.52            0   -144034.19   -2954.6417 
   82000    486.54506   -146046.64            0   -144034.19   -3123.4072 
   82100    485.56426   -146042.57            0   -144034.18   -3094.4952 
   82200    488.43825   -146054.48            0    -144034.2   -2960.8553 
   82300    487.53576   -146050.75            0   -144034.21   -3049.5514 
   82400    488.19363   -146053.47            0    -144034.2   -2893.7914 
   82500    484.88548   -146039.77            0   -144034.19   -3134.8555 
   82600    490.24146   -146061.95            0   -144034.21   -2815.1119 
   82700    488.60272   -146055.18            0   -144034.23    -3172.329 
   82800    486.05266    -146044.6            0   -144034.19   -3071.3355 
   82900    486.49943   -146046.45            0   -144034.19   -2866.7802 
   83000     490.1746   -146061.68            0   -144034.22   -3101.6265 
   83100    488.03917   -146052.83            0   -144034.21   -3040.8888 
   83200    486.01831   -146044.45            0   -144034.18   -3061.5786 
   83300    486.75299    -146047.5            0   -144034.19   -3035.9336 
   83400    486.39826   -146046.01            0   -144034.17   -2933.2631 
   83500    488.09133   -146053.04            0    -144034.2   -3158.7694 
   83600    487.39461   -146050.16            0    -144034.2   -2969.1564 
   83700    488.28758   -146053.86            0   -144034.21   -3118.1571 
   83800    488.80541      -146056            0    -144034.2     -3048.12 
   83900    486.92388    -146048.2            0   -144034.19   -3096.3687 
   84000     487.6485    -146051.2            0   -144034.19   -3128.7256 
   84100    486.28183   -146045.54            0   -144034.19   -3058.0709 
   84200    484.68528   -146038.93            0   -144034.17   -3159.1751 
   84300    486.00175   -146044.38            0   -144034.18   -3007.8293 
   84400    487.46766   -146050.46            0    -144034.2    -3223.642 
   84500     487.7562   -146051.65            0   -144034.19   -3062.4157 
   84600    485.79496   -146043.53            0   -144034.19   -3141.7444 
   84700    487.24507   -146049.53            0   -144034.19   -3095.1906 
   84800    488.44917   -146054.51            0   -144034.19   -3067.4438 
   84900    486.85804   -146047.94            0    -144034.2   -3167.8315 
   85000    486.82716    -146047.8            0   -144034.19   -3145.8806 
   85100    488.34772    -146054.1            0   -144034.19   -3134.7143 
   85200    486.95204   -146048.32            0   -144034.19   -3067.3211 
   85300    485.35717   -146041.71            0   -144034.18   -3153.1558 
   85400    486.54756   -146046.64            0   -144034.18   -3098.4008 
   85500    485.42152   -146041.97            0   -144034.17   -3242.0801 
   85600    490.78765   -146064.21            0   -144034.21   -3070.5667 
   85700    485.77537   -146043.46            0    -144034.2   -3194.5731 
   85800    489.32802   -146058.15            0    -144034.2   -2893.1177 
   85900    486.68963   -146047.24            0    -144034.2   -3344.2271 
   86000    487.81366   -146051.88            0   -144034.19   -2960.6719 
   86100    486.24739    -146045.4            0   -144034.19   -3191.9733 
   86200    484.99125    -146040.2            0   -144034.18   -3141.8203 
   86300    489.34432   -146058.22            0   -144034.19   -2956.6477 
   86400     485.5255   -146042.41            0   -144034.18    -3138.954 
   86500    486.10612   -146044.81            0   -144034.18     -3091.05 
   86600    488.57694   -146055.05            0    -144034.2   -3099.2677 
   86700    486.92086   -146048.19            0   -144034.19   -3053.9152 
   86800    488.09961   -146053.07            0    -144034.2   -2945.8506 
   86900    488.34951    -146054.1            0    -144034.2   -3102.8861 
   87000    487.31474   -146049.81            0   -144034.19    -2901.237 
   87100    487.80214   -146051.84            0   -144034.19   -3109.6192 
   87200    488.10742    -146053.1            0   -144034.19   -3129.5577 
   87300    487.52442   -146050.69            0   -144034.19   -2926.3597 
   87400    486.34257   -146045.79            0   -144034.18   -3028.0716 
   87500    489.11898    -146057.3            0   -144034.21   -3077.7056 
   87600    487.20658   -146049.38            0   -144034.19   -3172.2656 
   87700    489.09846   -146057.21            0   -144034.21   -3135.2246 
   87800    489.29297   -146058.01            0    -144034.2   -3062.2057 
   87900    486.51037    -146046.5            0   -144034.19   -3085.3808 
   88000    488.26464   -146053.75            0   -144034.19   -3043.1768 
   88100    487.46585   -146050.45            0    -144034.2   -3196.8989 
   88200    486.23096   -146045.34            0   -144034.19    -2994.367 
   88300    487.05868   -146048.76            0   -144034.19   -2984.9403 
   88400    488.61868   -146055.22            0   -144034.19   -3070.1897 
   88500    487.92902   -146052.36            0   -144034.19   -2998.1574 
   88600    484.96535   -146040.08            0   -144034.17   -3059.4395 
   88700    486.48937    -146046.4            0   -144034.18   -2957.9744 
   88800     487.8656   -146052.09            0   -144034.18   -2784.4441 
   88900    484.34817   -146037.54            0   -144034.18    -3083.826 
   89000    487.86011   -146052.08            0   -144034.19   -2991.9081 
   89100     489.3044   -146058.06            0   -144034.21    -3118.486 
   89200    489.35479   -146058.28            0   -144034.21   -3082.1657 
   89300    489.38465   -146058.41            0   -144034.22   -2885.7459 
   89400    487.49737   -146050.58            0    -144034.2   -3034.8029 
   89500    484.94496      -146040            0   -144034.17   -3047.7652 
   89600    485.81096   -146043.58            0   -144034.17   -2816.1286 
   89700    486.18832   -146045.16            0   -144034.19   -3043.7367 
   89800    486.82957   -146047.82            0    -144034.2    -3091.424 
   89900    486.17069   -146045.09            0   -144034.19   -3019.6975 
   90000     486.8113   -146047.74            0   -144034.19   -3026.2219 
   90100    487.49479   -146050.57            0    -144034.2   -3093.2344 
   90200     487.6488    -146051.2            0   -144034.19   -2948.5319 
   90300    487.31738   -146049.84            0    -144034.2   -3192.4198 
   90400    487.35568   -146049.99            0   -144034.19   -3080.6271 
   90500    485.25266   -146041.27            0   -144034.17   -2948.6608 
   90600    488.10323   -146053.09            0    -144034.2   -3020.8903 
   90700    487.49595   -146050.58            0    -144034.2   -3147.2054 
   90800    488.65055   -146055.37            0   -144034.21   -2953.7629 
   90900    487.48222   -146050.52            0    -144034.2   -2820.1769 
   91000    486.43207   -146046.17            0   -144034.19   -3038.7772 
   91100    485.68239   -146043.06            0   -144034.19   -2941.1823 
   91200    485.47371   -146042.18            0   -144034.17   -2906.1409 
   91300    488.78448   -146055.92            0   -144034.21   -3065.2297 
   91400    490.72895   -146063.97            0   -144034.22   -3071.4567 
   91500    488.02414   -146052.77            0   -144034.21   -2979.0219 
   91600    487.07907   -146048.85            0    -144034.2   -2982.3684 
   91700    486.10888   -146044.84            0    -144034.2    -3080.419 
   91800    488.48993   -146054.69            0    -144034.2   -2720.4792 
   91900    486.03967   -146044.56            0    -144034.2   -3220.6677 
   92000     487.8588   -146052.08            0    -144034.2   -2838.7975 
   92100    487.93366    -146052.4            0   -144034.21   -3140.6606 
   92200    489.92535   -146060.64            0   -144034.21   -2992.9129 
   92300    488.24209   -146053.67            0    -144034.2   -3105.5101 
   92400    486.47994   -146046.38            0    -144034.2    -3116.076 
   92500    491.39897   -146066.73            0   -144034.21   -2994.4888 
   92600    485.74178   -146043.31            0   -144034.18   -3173.8711 
   92700    489.72022   -146059.79            0   -144034.21   -2995.6584 
   92800    484.89151    -146039.8            0   -144034.19   -2991.1875 
   92900    488.79751   -146055.96            0    -144034.2   -3038.1457 
   93000    487.87611   -146052.16            0   -144034.21   -3169.3592 
   93100    487.00601   -146048.53            0   -144034.18   -2859.0482 
   93200    485.01544    -146040.3            0   -144034.18   -3140.0684 
   93300    486.08123    -146044.7            0   -144034.17   -2845.9082 
   93400    487.05661   -146048.75            0   -144034.19   -3017.8419 
   93500    484.01272   -146036.14            0   -144034.17   -3011.3673 
   93600    489.34748   -146058.25            0   -144034.21   -3006.6426 
   93700    487.43502   -146050.32            0    -144034.2   -3015.7722 
   93800    487.60941   -146051.05            0    -144034.2   -3037.9571 
   93900    489.39984   -146058.45            0    -144034.2   -2891.7224 
   94000    486.58681   -146046.81            0   -144034.19   -3041.8295 
   94100    487.49044   -146050.56            0   -144034.21   -3034.6379 
   94200    488.53294   -146054.88            0   -144034.22   -3000.1277 
   94300    490.15196   -146061.57            0   -144034.21   -2854.7073 
   94400    486.59114   -146046.83            0   -144034.19   -3074.2759 
   94500     487.5098   -146050.64            0    -144034.2    -2910.024 
   94600    488.16592   -146053.37            0   -144034.22    -2958.681 
   94700    490.74153   -146064.01            0   -144034.21   -2799.4572 
   94800    485.66673      -146043            0   -144034.19   -3060.6747 
   94900    485.19602   -146041.04            0   -144034.18   -2920.1301 
   95000    485.49021   -146042.27            0   -144034.19   -2884.0991 
   95100    486.84161   -146047.87            0    -144034.2   -2897.6156 
   95200    485.80566   -146043.58            0   -144034.19   -3050.4808 
   95300    489.99166   -146060.92            0   -144034.22   -2914.5719 
   95400    487.17196   -146049.25            0   -144034.21   -2992.9017 
   95500    486.39156   -146046.01            0    -144034.2   -3031.1997 
   95600    488.51865   -146054.81            0   -144034.21   -2978.3676 
   95700    488.65283   -146055.38            0   -144034.21   -3136.5192 
   95800    489.61508   -146059.35            0   -144034.21   -2913.4516 
   95900    487.55021    -146050.8            0    -144034.2   -3058.4425 
   96000     489.3871   -146058.41            0   -144034.21   -3131.6894 
   96100    485.83556    -146043.7            0   -144034.19   -2939.7785 
   96200    486.12174   -146044.88            0   -144034.19   -2908.4683 
   96300    484.48843   -146038.12            0   -144034.18    -2861.157 
   96400    487.29131   -146049.73            0    -144034.2   -2950.9896 
   96500    490.31171   -146062.23            0   -144034.21   -2926.4623 
   96600    486.60151   -146046.87            0   -144034.19   -2976.6669 
   96700    486.72872   -146047.41            0    -144034.2    -3015.902 
   96800     488.9149   -146056.44            0    -144034.2   -2971.3421 
   96900    487.70987   -146051.46            0    -144034.2   -3116.5315 
   97000    489.12078   -146057.31            0   -144034.21    -3054.362 
   97100    487.23484   -146049.49            0    -144034.2   -2854.9647 
   97200    487.35828   -146050.01            0    -144034.2   -3094.1526 
   97300      487.848   -146052.03            0    -144034.2   -2860.7268 
   97400    486.91271   -146048.16            0    -144034.2   -3050.3038 
   97500    489.98163   -146060.87            0   -144034.21   -2975.2642 
   97600    487.47357   -146050.48            0   -144034.19   -2991.9654 
   97700    489.68514   -146059.64            0   -144034.21   -2964.1535 
   97800    485.39388   -146041.87            0   -144034.18   -3038.6301 
   97900    485.29245   -146041.44            0   -144034.18   -2956.2938 
   98000    487.46364   -146050.44            0   -144034.19   -2744.9366 
   98100    485.87965   -146043.88            0   -144034.19   -2985.4557 
   98200    484.37769   -146037.66            0   -144034.18   -3027.9719 
   98300    487.12157   -146049.02            0   -144034.19   -2803.1884 
   98400    487.64853   -146051.21            0    -144034.2   -3052.3686 
   98500    484.90104   -146039.84            0    -144034.2   -2971.5082 
   98600    489.38559   -146058.39            0    -144034.2   -2982.9716 
   98700    487.67917   -146051.33            0    -144034.2    -2870.342 
   98800    484.84748   -146039.61            0   -144034.19   -3000.7715 
   98900    487.24988   -146049.56            0    -144034.2    -2987.174 
   99000    489.23467   -146057.78            0   -144034.21   -2796.3351 
   99100    487.73736   -146051.59            0   -144034.21   -3042.8123 
   99200    488.50441   -146054.76            0   -144034.21   -2929.8299 
   99300     486.8709      -146048            0   -144034.21   -3162.1813 
   99400    491.23544   -146066.06            0   -144034.22   -2754.3279 
   99500    485.43257   -146042.04            0    -144034.2   -3003.7604 
   99600    488.73157   -146055.68            0   -144034.19   -2800.0472 
   99700    484.47418   -146038.07            0   -144034.19   -3028.4913 
   99800    489.95452   -146060.74            0    -144034.2   -2761.3332 
   99900    489.25265   -146057.84            0    -144034.2   -3030.2775 
  100000     484.6097   -146038.62            0   -144034.18   -3044.4197 
  100100    488.66915   -146055.43            0    -144034.2   -2954.9279 
  100200    490.91294   -146064.74            0   -144034.23    -2988.397 
  100300    486.62657   -146046.98            0   -144034.19   -2917.9843 
  100400    484.17923   -146036.85            0   -144034.19   -3109.7319 
  100500    489.33252   -146058.18            0    -144034.2   -2866.5554 
  100600    488.64896   -146055.34            0   -144034.19   -2985.3086 
  100700    487.31612   -146049.82            0   -144034.19   -3001.8096 
  100800    487.21537   -146049.42            0    -144034.2   -3271.9993 
  100900    491.64268   -146067.75            0   -144034.21   -2984.1595 
  101000    483.84127   -146035.43            0   -144034.17   -3143.3515 
  101100    487.05083   -146048.73            0   -144034.19   -3051.7376 
  101200    493.06658   -146073.65            0   -144034.23   -2993.0927 
  101300    486.51188    -146046.5            0    -144034.2    -3132.825 
  101400    486.65527   -146047.09            0   -144034.19   -2981.3632 
  101500    487.41166   -146050.22            0   -144034.19   -2936.9885 
  101600    487.48451   -146050.51            0   -144034.18   -2827.2455 
  101700    488.31064   -146053.95            0    -144034.2   -3016.3897 
  101800    484.46769   -146038.05            0    -144034.2   -3044.1351 
  101900    488.22091   -146053.59            0   -144034.21   -2942.3019 
  102000    487.52652   -146050.69            0   -144034.18   -2670.1036 
  102100    482.00721   -146027.85            0   -144034.18   -2967.0997 
  102200    488.08398      -146053            0   -144034.19   -2831.2615 
  102300    485.47133   -146042.19            0   -144034.19   -3067.6359 
  102400    489.32637   -146058.17            0   -144034.22   -2866.7108 
  102500    486.99331   -146048.51            0   -144034.21   -3186.9789 
  102600    491.80228   -146068.41            0   -144034.22   -2845.3805 
  102700     486.1609   -146045.06            0   -144034.21   -3246.2891 
  102800    488.08852   -146053.02            0   -144034.19   -2844.7402 
  102900    490.26394   -146062.04            0   -144034.21   -3004.9995 
  103000     485.5402   -146042.47            0   -144034.18   -2965.8077 
  103100    485.32251   -146041.59            0    -144034.2   -2991.4822 
  103200     489.2796   -146057.97            0   -144034.21   -2992.7371 
  103300    486.71127   -146047.34            0   -144034.21   -2954.7157 
  103400    487.29442   -146049.74            0    -144034.2   -2995.5387 
  103500    488.54259   -146054.91            0   -144034.21    -3007.273 
  103600     489.3711   -146058.36            0   -144034.22   -3006.3246 
  103700    487.39558   -146050.18            0   -144034.21   -3102.1619 
  103800    489.66157   -146059.56            0   -144034.22   -2885.9071 
  103900    487.83819      -146052            0   -144034.21   -2986.6288 
  104000    484.71484   -146039.07            0   -144034.19   -2935.2848 
  104100    486.90119   -146048.11            0   -144034.19   -2906.1818 
  104200    487.48432   -146050.53            0    -144034.2   -2890.5939 
  104300    484.59465   -146038.57            0   -144034.19    -3001.156 
  104400    485.08398   -146040.58            0   -144034.18   -2983.5865 
  104500    485.83939   -146043.71            0   -144034.18   -2852.9545 
  104600     485.9627   -146044.23            0   -144034.19   -3005.9115 
  104700    488.97893   -146056.72            0    -144034.2   -2876.6906 
  104800    485.85136   -146043.76            0   -144034.19   -3006.0484 
  104900    488.89906   -146056.39            0   -144034.21   -3046.9788 
  105000     487.5942   -146050.98            0    -144034.2   -2896.0723 
  105100    483.05487   -146032.19            0   -144034.18   -3046.7296 
  105200    486.38957   -146045.99            0   -144034.19   -2853.5669 
  105300    488.08323   -146053.02            0   -144034.22    -3003.619 
  105400     487.2463   -146049.54            0   -144034.19   -2849.5862 
[...]
  975000    484.21296   -146037.01            0   -144034.22   -3124.8168 
  975100    490.15538   -146061.62            0   -144034.24     -2969.98 
  975200     487.0865   -146048.92            0   -144034.24   -3109.5948 
  975300    488.36083   -146054.19            0   -144034.24   -2999.8481 
  975400    485.48692   -146042.29            0   -144034.22   -3086.4155 
  975500    487.89774   -146052.27            0   -144034.23    -3146.359 
  975600    486.77962   -146047.64            0   -144034.22   -2885.7268 
  975700    486.82435   -146047.84            0   -144034.24    -3159.995 
  975800    487.08249    -146048.9            0   -144034.23   -2850.5635 
  975900    486.16457   -146045.11            0   -144034.24   -3129.8141 
  976000    485.72623   -146043.28            0   -144034.22   -3048.8699 
  976100    487.33097   -146049.93            0   -144034.23    -2998.078 
  976200    487.54683   -146050.83            0   -144034.24   -3114.3821 
  976300    489.26711   -146057.94            0   -144034.24   -3113.0456 
  976400    489.27195   -146057.97            0   -144034.25   -3082.1741 
  976500    486.80836   -146047.76            0   -144034.23    -3021.261 
  976600    487.69405   -146051.44            0   -144034.24   -3154.9456 
  976700    488.17957   -146053.44            0   -144034.23   -3165.1734 
  976800    489.61543   -146059.38            0   -144034.23   -2950.5621 
  976900    486.46334   -146046.34            0   -144034.23    -3145.085 
  977000    488.14585   -146053.29            0   -144034.23   -2976.0059 
  977100     485.4648   -146042.19            0   -144034.21    -3268.526 
  977200    487.65062   -146051.25            0   -144034.23   -3170.2802 
  977300    488.31696   -146054.02            0   -144034.24   -3213.5703 
  977400    488.82308   -146056.09            0   -144034.23   -2965.2961 
  977500    483.84663    -146035.5            0   -144034.22   -3298.0432 
  977600    490.84154   -146064.46            0   -144034.25   -3069.7894 
  977700    486.45034   -146046.29            0   -144034.24   -3262.3676 
  977800    490.69788   -146063.87            0   -144034.24   -3150.2103 
  977900    484.83176   -146039.57            0   -144034.22   -2941.5922 
  978000    486.66484   -146047.17            0   -144034.23   -2984.3305 
  978100    488.32599   -146054.05            0   -144034.24   -2983.1152 
  978200    484.17317   -146036.87            0   -144034.24    -3317.181 
  978300    491.15643   -146065.76            0   -144034.25   -2805.7428 
  978400    487.62893   -146051.17            0   -144034.24    -3028.275 
  978500    489.32802    -146058.2            0   -144034.25   -3168.5445 
  978600    486.06351   -146044.68            0   -144034.23   -3036.0715 
  978700    489.48255   -146058.83            0   -144034.24   -2914.3074 
  978800    487.50955   -146050.66            0   -144034.22   -3013.4996 
  978900    485.75407   -146043.41            0   -144034.24   -3208.2928 
  979000    490.64316   -146063.64            0   -144034.25   -2880.1525 
  979100    488.32361   -146054.05            0   -144034.25   -3090.9119 
  979200     488.1156   -146053.18            0   -144034.24   -3068.5784 
  979300    485.49573   -146042.31            0   -144034.21   -3053.6041 
  979400    487.72338   -146051.55            0   -144034.23    -3086.635 
  979500    489.27313   -146057.97            0   -144034.24   -3029.4425 
  979600    484.88269   -146039.79            0   -144034.22   -3143.9752 
  979700      488.364   -146054.19            0   -144034.22   -3083.6723 
  979800    485.57794   -146042.66            0   -144034.22    -3071.118 
  979900    488.92347   -146056.51            0   -144034.23   -2977.0757 
  980000    487.67854   -146051.38            0   -144034.24   -3265.7815 
  980100    490.57113   -146063.33            0   -144034.24   -2960.8435 
  980200    488.81073   -146056.06            0   -144034.24   -3098.9403 
  980300    487.96148   -146052.53            0   -144034.23   -3164.5999 
  980400    488.71803   -146055.67            0   -144034.24   -2975.8056 
  980500    487.34971   -146050.01            0   -144034.24   -3152.6332 
  980600    487.32985   -146049.91            0   -144034.22   -3119.5717 
  980700    485.97142   -146044.29            0   -144034.22   -2985.7685 
  980800    490.50535   -146063.07            0   -144034.24    -2992.378 
  980900    487.29319   -146049.77            0   -144034.23   -3156.8497 
  981000      487.608   -146051.07            0   -144034.23    -2962.932 
  981100    488.01727   -146052.77            0   -144034.24   -3094.5913 
  981200    488.58631   -146055.12            0   -144034.23   -3004.9307 
  981300    486.68548   -146047.25            0   -144034.22   -3029.9459 
  981400    487.96457   -146052.55            0   -144034.24   -3042.3051 
  981500    487.71289   -146051.51            0   -144034.24   -3115.5211 
  981600    487.07526   -146048.87            0   -144034.23   -2945.2022 
  981700    485.76672   -146043.45            0   -144034.23   -3058.4879 
  981800    487.09354   -146048.95            0   -144034.23   -3047.1973 
  981900    487.59065      -146051            0   -144034.23   -2939.3242 
  982000    484.45765   -146038.02            0   -144034.21   -3072.0825 
  982100    488.80943   -146056.05            0   -144034.24    -2910.544 
  982200    487.45214   -146050.44            0   -144034.24   -3261.8006 
  982300    489.33163   -146058.21            0   -144034.24   -2899.8325 
  982400    486.49762   -146046.48            0   -144034.23   -2966.5617 
  982500    486.51198   -146046.55            0   -144034.25   -3232.1391 
  982600    488.13663   -146053.27            0   -144034.24   -3018.6631 
  982700    488.48349   -146054.69            0   -144034.23   -2982.0508 
  982800    487.57566   -146050.94            0   -144034.23   -3049.1399 
  982900    487.92691    -146052.4            0   -144034.24   -3153.4485 
  983000    488.38861    -146054.3            0   -144034.23   -2975.3816 
  983100    487.79465   -146051.85            0   -144034.23     -3092.29 
  983200    486.67531   -146047.21            0   -144034.23   -3109.0841 
  983300    488.39732   -146054.34            0   -144034.23   -2985.6173 
  983400     485.6313   -146042.89            0   -144034.22    -3117.489 
  983500    487.01988   -146048.64            0   -144034.23   -3095.4263 
  983600    485.07554   -146040.58            0   -144034.21    -3071.295 
  983700    488.60069   -146055.19            0   -144034.24   -2961.9399 
  983800    486.93836    -146048.3            0   -144034.23   -3091.2329 
  983900    487.01121   -146048.59            0   -144034.22   -2839.5254 
  984000    489.11578   -146057.33            0   -144034.25     -2925.51 
  984100    486.59059   -146046.88            0   -144034.24   -3147.2001 
  984200    489.11067   -146057.29            0   -144034.23   -2867.8901 
  984300    484.61344   -146038.68            0   -144034.22   -3025.2004 
  984400    483.58799   -146034.42            0   -144034.21    -3049.554 
  984500     485.1175   -146040.76            0   -144034.22   -2916.1122 
  984600    488.03878   -146052.85            0   -144034.22   -2877.9414 
  984700    486.40199   -146046.09            0   -144034.23    -3158.093 
  984800    486.82908   -146047.84            0   -144034.22   -2934.1592 
  984900    487.08137    -146048.9            0   -144034.23   -2930.0438 
  985000    487.44084   -146050.37            0   -144034.22   -3035.4011 
  985100    485.22503   -146041.19            0   -144034.21   -3035.0954 
  985200    486.41927   -146046.14            0   -144034.21   -2947.5067 
  985300    485.61965   -146042.84            0   -144034.22   -3091.1577 
  985400    488.60986   -146055.21            0   -144034.23   -2885.2126 
  985500    488.04668    -146052.9            0   -144034.24    -3153.868 
  985600    490.67767   -146063.79            0   -144034.25   -2982.1214 
  985700    488.97831   -146056.76            0   -144034.25   -3048.1035 
  985800    490.62742   -146063.59            0   -144034.26   -3082.2025 
  985900    487.61502    -146051.1            0   -144034.23   -3137.4025 
  986000    488.17309    -146053.4            0   -144034.22   -2894.9407 
  986100    487.01775    -146048.6            0    -144034.2    -3106.565 
  986200    485.29116   -146041.46            0   -144034.21   -3101.2051 
  986300    486.26446    -146045.5            0   -144034.22   -3035.3992 
  986400    486.46604   -146046.33            0   -144034.21   -3143.4796 
  986500    488.85954   -146056.24            0   -144034.22   -2902.1805 
  986600    485.92073   -146044.08            0   -144034.22   -3119.8986 
  986700    488.22026   -146053.61            0   -144034.23   -3168.0621 
  986800    488.92603   -146056.52            0   -144034.22   -2951.6238 
  986900    486.31657   -146045.73            0   -144034.23   -3075.0347 
  987000    485.82027   -146043.66            0   -144034.22    -2886.653 
  987100    488.51377   -146054.83            0   -144034.24   -2991.6679 
  987200    487.24177   -146049.55            0   -144034.23   -2957.2088 
  987300    487.50455   -146050.65            0   -144034.24   -2949.1442 
  987400    488.01937   -146052.78            0   -144034.23   -3018.8858 
  987500    488.94987   -146056.63            0   -144034.24   -2977.0376 
  987600    487.63082   -146051.15            0   -144034.21   -2917.9342 
  987700    487.30725   -146049.83            0   -144034.23   -3132.1982 
  987800    489.38762   -146058.44            0   -144034.23   -2984.2217 
  987900    485.60514   -146042.77            0   -144034.21    -3091.654 
  988000    487.89939   -146052.28            0   -144034.23   -3084.8801 
  988100    489.15155   -146057.45            0   -144034.23   -3003.0183 
  988200    487.61115   -146051.08            0   -144034.23   -3177.5797 
  988300    487.75171   -146051.66            0   -144034.23   -2984.8538 
  988400    487.57141   -146050.92            0   -144034.23   -3036.3649 
  988500    486.66915   -146047.17            0   -144034.21   -3061.7977 
  988600    487.28403   -146049.72            0   -144034.22   -3126.0242 
  988700     487.6085   -146051.07            0   -144034.22   -3059.4627 
  988800    488.83035   -146056.12            0   -144034.22   -3063.5075 
  988900    488.06853   -146052.97            0   -144034.23   -3153.2124 
  989000    488.81557   -146056.06            0   -144034.22   -3038.6297 
  989100    484.09303   -146036.51            0   -144034.21   -3064.7464 
  989200    488.44741   -146054.55            0   -144034.23   -2950.0537 
  989300    485.32823   -146041.62            0   -144034.21   -3111.7415 
  989400    488.22127   -146053.59            0   -144034.21   -2884.5113 
  989500    486.61005   -146046.94            0   -144034.22   -3050.6502 
  989600    488.07834   -146053.01            0   -144034.23   -2937.3579 
  989700    488.35258   -146054.14            0   -144034.22   -3008.9635 
  989800    484.21623   -146037.02            0    -144034.2   -3016.9361 
  989900    488.33972   -146054.08            0   -144034.21   -2989.7055 
  990000    487.49326   -146050.58            0   -144034.22   -3093.2415 
  990100    488.76551   -146055.85            0   -144034.22   -3008.2032 
  990200    487.06272    -146048.8            0   -144034.22   -2936.5189 
  990300     485.7553    -146043.4            0   -144034.22   -2995.8297 
  990400    488.67065   -146055.47            0   -144034.23   -2967.9229 
  990500    486.94129   -146048.31            0   -144034.22   -3086.6833 
  990600    487.79133   -146051.82            0   -144034.22   -2930.5347 
  990700    485.37877   -146041.83            0   -144034.21   -2990.3031 
  990800    485.97069   -146044.28            0   -144034.21   -2870.0865 
  990900      489.267   -146057.93            0   -144034.23   -3011.3918 
  991000     486.8383   -146047.88            0   -144034.22   -3091.4585 
  991100    487.99011   -146052.64            0   -144034.22   -3001.8034 
  991200    488.48907   -146054.71            0   -144034.22    -3110.918 
  991300    490.08667   -146061.34            0   -144034.24   -2924.3878 
  991400     488.9813   -146056.76            0   -144034.24   -3040.7657 
  991500    488.99051   -146056.79            0   -144034.23   -3027.7798 
  991600    484.00454   -146036.14            0   -144034.21   -2984.5686 
  991700    489.90096   -146060.53            0   -144034.21   -2610.4378 
  991800    485.27984   -146041.42            0    -144034.2   -3093.2459 
  991900    488.17388   -146053.39            0   -144034.21   -2948.6799 
  992000    488.04041   -146052.87            0   -144034.24   -3062.1968 
  992100    488.68423   -146055.53            0   -144034.24   -2953.9698 
  992200    490.31403   -146062.28            0   -144034.25   -2859.1313 
  992300    489.02346   -146056.95            0   -144034.25   -2956.8082 
  992400    488.22663   -146053.63            0   -144034.23   -2994.1511 
  992500    487.14911   -146049.16            0   -144034.22   -2802.9934 
  992600    486.91776   -146048.22            0   -144034.23   -2887.0978 
  992700    487.30601   -146049.82            0   -144034.22    -2957.354 
  992800    486.76923    -146047.6            0   -144034.23   -2955.9294 
  992900    486.40613   -146046.07            0    -144034.2    -2877.277 
  993000    486.74656    -146047.5            0   -144034.22   -2946.6085 
  993100     490.7046   -146063.88            0   -144034.23   -2853.4021 
  993200    484.16831   -146036.82            0    -144034.2   -2996.5564 
  993300    486.57385   -146046.78            0   -144034.21   -2946.6885 
  993400     488.2662   -146053.79            0   -144034.22   -3019.5514 
  993500      489.821   -146060.24            0   -144034.25   -2922.1029 
  993600    485.95157   -146044.22            0   -144034.23   -3147.2215 
  993700    485.73966   -146043.33            0   -144034.22    -3030.783 
  993800    491.00922   -146065.15            0   -144034.24   -2729.7623 
  993900    485.13987   -146040.86            0   -144034.22   -3205.0627 
  994000    487.63749   -146051.19            0   -144034.22   -2909.7514 
  994100    487.06707   -146048.82            0   -144034.21   -3013.3392 
  994200    491.30564   -146066.38            0   -144034.25   -2906.5643 
  994300    487.07986   -146048.89            0   -144034.23   -3276.9188 
  994400    488.97101    -146056.7            0   -144034.22   -2942.9359 
  994500    487.61149   -146051.07            0   -144034.21    -2972.245 
  994600    488.56078   -146055.01            0   -144034.23   -3099.0061 
  994700      487.246   -146049.56            0   -144034.21    -2983.544 
  994800    488.06733   -146052.97            0   -144034.22   -3020.9077 
  994900    487.54052   -146050.79            0   -144034.22   -2973.3285 
  995000    486.50963   -146046.52            0   -144034.23   -3072.0048 
  995100    485.18325   -146041.01            0    -144034.2   -2921.7487 
  995200     486.4502   -146046.27            0   -144034.22   -3088.8472 
  995300    490.62408   -146063.56            0   -144034.24   -3013.0152 
  995400    486.90916   -146048.17            0   -144034.22   -3005.6357 
  995500     488.4638   -146054.61            0   -144034.23   -3041.7368 
  995600    488.05478   -146052.92            0   -144034.23    -3029.245 
  995700    487.61986    -146051.1            0   -144034.21    -2896.108 
  995800     488.0353   -146052.84            0   -144034.24   -3124.6471 
  995900    487.85199   -146052.07            0   -144034.22   -2983.6571 
  996000     486.8328   -146047.85            0   -144034.22   -3043.2695 
  996100    488.68382   -146055.53            0   -144034.24   -3121.4642 
  996200    489.60463   -146059.32            0   -144034.22   -2950.9596 
  996300    486.25634   -146045.47            0   -144034.22   -3092.3965 
  996400    489.85125   -146060.35            0   -144034.23   -3048.3338 
  996500    487.21717   -146049.44            0   -144034.22   -3043.7186 
  996600     489.5841   -146059.24            0   -144034.23    -2978.869 
  996700     487.1599   -146049.21            0   -144034.22   -3180.7691 
  996800     487.9488   -146052.47            0   -144034.22   -2904.6388 
  996900    489.23279   -146057.79            0   -144034.23   -3014.5603 
  997000     485.3795   -146041.83            0   -144034.21    -3033.869 
  997100    487.26393   -146049.63            0   -144034.21   -2923.6821 
  997200    487.73829   -146051.62            0   -144034.24   -3187.9357 
  997300    490.27471    -146062.1            0   -144034.23     -2928.17 
  997400    486.38535   -146046.01            0   -144034.23   -3055.9973 
  997500    487.79508   -146051.85            0   -144034.23   -2923.2044 
  997600    487.25193    -146049.6            0   -144034.23   -3017.8235 
  997700    484.42035   -146037.86            0    -144034.2   -3189.8316 
  997800    489.43412   -146058.63            0   -144034.23    -2922.094 
  997900    488.15531   -146053.34            0   -144034.23   -3202.0668 
  998000    485.32637   -146041.61            0    -144034.2   -2967.0702 
  998100    486.18487   -146045.16            0   -144034.21   -3018.0813 
  998200    486.84731   -146047.91            0   -144034.22   -3105.8824 
  998300    490.50665   -146063.07            0   -144034.24   -2971.0511 
  998400    487.34862      -146050            0   -144034.23   -3084.7648 
  998500    488.64371   -146055.35            0   -144034.22   -3042.4623 
  998600    486.91094   -146048.18            0   -144034.22   -2921.4275 
  998700    485.62802   -146042.87            0   -144034.22    -3041.416 
  998800    487.80654   -146051.89            0   -144034.23   -2923.1743 
  998900    485.51263   -146042.38            0    -144034.2   -2993.6171 
  999000    487.38129   -146050.12            0   -144034.22   -2960.8752 
  999100     488.2764   -146053.83            0   -144034.23     -2919.74 
  999200     489.6716   -146059.63            0   -144034.25   -3196.8922 
  999300    488.58304    -146055.1            0   -144034.23   -2895.3426 
  999400     487.9603   -146052.52            0   -144034.22   -3015.1422 
  999500    488.05511   -146052.92            0   -144034.23   -2996.5607 
  999600    484.99825   -146040.26            0   -144034.22   -2972.7893 
  999700    487.90863   -146052.31            0   -144034.22     -2832.58 
  999800    485.46893   -146042.21            0   -144034.21   -3128.3327 
  999900    486.87098      -146048            0   -144034.21   -2897.7358 
 1000000    485.67661   -146043.06            0   -144034.21   -2960.1532 
Loop time of 2278.95 on 80 procs for 1000000 steps with 32000 atoms

Performance: 37.912 ns/day, 0.633 hours/ns, 438.799 timesteps/s
399.0% CPU use with 20 MPI tasks x 4 OpenMP threads

MPI task timing breakdown:
Section |  min time  |  avg time  |  max time  |%varavg| %total
---------------------------------------------------------------
Pair    | 1848       | 1857.8     | 1867.2     |  14.0 | 81.52
Neigh   | 47.423     | 47.788     | 48.303     |   3.9 |  2.10
Comm    | 219.37     | 229.55     | 241.63     |  42.2 | 10.07
Output  | 1.2788     | 1.4356     | 1.704      |   8.2 |  0.06
Modify  | 54.894     | 55.201     | 55.632     |   3.2 |  2.42
Other   |            | 87.15      |            |       |  3.82

Nlocal:    1600 ave 1620 max 1576 min
Histogram: 2 1 0 4 0 1 5 6 0 1
Nghost:    1900.75 ave 1919 max 1887 min
Histogram: 4 1 2 4 1 1 4 1 0 2
Neighs:    0 ave 0 max 0 min
Histogram: 20 0 0 0 0 0 0 0 0 0
FullNghs:  26372.6 ave 26761 max 25926 min
Histogram: 3 0 1 3 0 3 3 6 0 1

Total # of neighbors = 527452
Ave neighs/atom = 16.4829
Neighbor list builds = 31248
Dangerous builds = 0
Total wall time: 0:37:58
